# vtk DataFile Version 3.0
MOAB 4.7.1pre
ASCII
DATASET UNSTRUCTURED_GRID
POINTS 27 double
5 -5 5
5 5 5
5 0 5
-5 5 5
0 5 5
-5 -5 5
-5 0 5
0 -5 5
0 0 5
5 5 -5
5 -5 -5
5 0 -5
-5 -5 -5
0 -5 -5
-5 5 -5
-5 0 -5
0 5 -5
0 0 -5
-5 -5 0
5 -5 0
0 -5 0
-5 5 0
-5 0 0
5 5 0
0 5 0
5 0 0
0 0 0
CELLS 80 336
2 2 1
2 0 2
2 4 3
2 1 4
2 6 5
2 3 6
2 7 0
2 5 7
2 8 6
2 4 8
2 8 7
2 2 8
2 11 10
2 9 11
2 13 12
2 10 13
2 15 14
2 12 15
2 16 9
2 14 16
2 17 15
2 13 17
2 17 16
2 11 17
2 18 12
2 5 18
2 19 10
2 0 19
2 20 19
2 13 20
2 20 7
2 18 20
2 21 14
2 3 21
2 22 18
2 15 22
2 22 6
2 21 22
2 23 9
2 1 23
2 24 21
2 16 24
2 24 4
2 23 24
2 25 23
2 11 25
2 25 2
2 19 25
4 8 4 3 6
4 7 8 6 5
4 2 1 4 8
4 0 2 8 7
4 17 13 12 15
4 16 17 15 14
4 11 10 13 17
4 9 11 17 16
4 20 13 10 19
4 7 20 19 0
4 18 12 13 20
4 5 18 20 7
4 22 15 12 18
4 6 22 18 5
4 21 14 15 22
4 3 21 22 6
4 24 16 14 21
4 4 24 21 3
4 23 9 16 24
4 1 23 24 4
4 25 11 9 23
4 2 25 23 1
4 19 10 11 25
4 0 19 25 2
8 5 18 22 6 7 20 26 8
8 18 12 15 22 20 13 17 26
8 6 22 21 3 8 26 24 4
8 22 15 14 21 26 17 16 24
8 7 20 26 8 0 19 25 2
8 20 13 17 26 19 10 11 25
8 8 26 24 4 2 25 23 1
8 26 17 16 24 25 11 9 23
CELL_TYPES 80
3
3
3
3
3
3
3
3
3
3
3
3
3
3
3
3
3
3
3
3
3
3
3
3
3
3
3
3
3
3
3
3
3
3
3
3
3
3
3
3
3
3
3
3
3
3
3
3
9
9
9
9
9
9
9
9
9
9
9
9
9
9
9
9
9
9
9
9
9
9
9
9
12
12
12
12
12
12
12
12
POINT_DATA 27
SCALARS GLOBAL_ID int 1
LOOKUP_TABLE default
1 
2 
3 
4 
5 
6 
7 
8 
9 
10 
11 
12 
13 
14 
15 
16 
17 
18 
19 
20 
21 
22 
23 
24 
25 
26 
27 
CELL_DATA 80
SCALARS GLOBAL_ID int 1
LOOKUP_TABLE default
2 
1 
4 
3 
6 
5 
8 
7 
12 
11 
10 
9 
14 
13 
16 
15 
18 
17 
20 
19 
24 
23 
22 
21 
26 
25 
28 
27 
32 
31 
30 
29 
34 
33 
38 
37 
36 
35 
40 
39 
44 
43 
42 
41 
48 
47 
46 
45 
4 
3 
2 
1 
8 
7 
6 
5 
12 
11 
10 
9 
16 
15 
14 
13 
20 
19 
18 
17 
24 
23 
22 
21 
1 
2 
3 
4 
5 
6 
7 
8 
