# vtk DataFile Version 3.0
MOAB 4.7.0pre
ASCII
DATASET UNSTRUCTURED_GRID
POINTS 218 double
-3 -3 -3
-3 -3 3
-3 3 3
-3 3 -3
3 -3 -3
3 -3 3
3 3 -3
3 3 3
-3.401680258 -3.401680258 -1.96396101
-3.61000918 -3.61000918 -0.9672990433
-3.674234614 -3.674234614 0
-3.61000918 -3.61000918 0.9672990433
-3.401680258 -3.401680258 1.96396101
-3.401680258 -1.96396101 3.401680258
-3.61000918 -0.9672990433 3.61000918
-3.674234614 0 3.674234614
-3.61000918 0.9672990433 3.61000918
-3.401680258 1.96396101 3.401680258
-3.401680258 3.401680258 -1.96396101
-3.61000918 3.61000918 -0.9672990433
-3.674234614 3.674234614 0
-3.61000918 3.61000918 0.9672990433
-3.401680258 3.401680258 1.96396101
-3.401680258 -1.96396101 -3.401680258
-3.61000918 -0.9672990433 -3.61000918
-3.674234614 0 -3.674234614
-3.61000918 0.9672990433 -3.61000918
-3.401680258 1.96396101 -3.401680258
3.401680258 -3.401680258 -1.96396101
3.61000918 -3.61000918 -0.9672990433
3.674234614 -3.674234614 0
3.61000918 -3.61000918 0.9672990433
3.401680258 -3.401680258 1.96396101
3.401680258 -1.96396101 -3.401680258
3.61000918 -0.9672990433 -3.61000918
3.674234614 0 -3.674234614
3.61000918 0.9672990433 -3.61000918
3.401680258 1.96396101 -3.401680258
3.401680258 3.401680258 -1.96396101
3.61000918 3.61000918 -0.9672990433
3.674234614 3.674234614 0
3.61000918 3.61000918 0.9672990433
3.401680258 3.401680258 1.96396101
3.401680258 -1.96396101 3.401680258
3.61000918 -0.9672990433 3.61000918
3.674234614 0 3.674234614
3.61000918 0.9672990433 3.61000918
3.401680258 1.96396101 3.401680258
-1.96396101 -3.401680258 -3.401680258
-0.9672990433 -3.61000918 -3.61000918
0 -3.674234614 -3.674234614
0.9672990433 -3.61000918 -3.61000918
1.96396101 -3.401680258 -3.401680258
-1.96396101 -3.401680258 3.401680258
-0.9672990433 -3.61000918 3.61000918
0 -3.674234614 3.674234614
0.9672990433 -3.61000918 3.61000918
1.96396101 -3.401680258 3.401680258
-1.96396101 3.401680258 -3.401680258
-0.9672990433 3.61000918 -3.61000918
0 3.674234614 -3.674234614
0.9672990433 3.61000918 -3.61000918
1.96396101 3.401680258 -3.401680258
-1.96396101 3.401680258 3.401680258
-0.9672990433 3.61000918 3.61000918
0 3.674234614 3.674234614
0.9672990433 3.61000918 3.61000918
1.96396101 3.401680258 3.401680258
-2.323790006 -2.323790006 -4.024922362
-2.530830066 -1.174562322 -4.383526266
-2.598076209 0 -4.500000002
-2.530830066 1.174562322 -4.383526266
-2.323790006 2.323790006 -4.024922362
-1.174562322 -2.530830066 -4.383526266
-1.301962536 -1.301962536 -4.858990339
-1.344863207 0 -5.019097823
-1.301962536 1.301962536 -4.858990339
-1.174562322 2.530830066 -4.383526266
0 -2.598076209 -4.500000002
0 -1.344863207 -5.019097823
0 0 -5.196152423
0 1.344863207 -5.019097823
0 2.598076209 -4.500000002
1.174562322 -2.530830066 -4.383526266
1.301962536 -1.301962536 -4.858990339
1.344863207 0 -5.019097823
1.301962536 1.301962536 -4.858990339
1.174562322 2.530830066 -4.383526266
2.323790006 -2.323790006 -4.024922362
2.530830066 -1.174562322 -4.383526266
2.598076209 0 -4.500000002
2.530830066 1.174562322 -4.383526266
2.323790006 2.323790006 -4.024922362
-4.024922362 -2.323790006 -2.323790006
-4.383526266 -2.530830066 -1.174562322
-4.500000002 -2.598076209 0
-4.383526266 -2.530830066 1.174562322
-4.024922362 -2.323790006 2.323790006
-4.383526266 -1.174562322 -2.530830066
-4.858990339 -1.301962536 -1.301962536
-5.019097823 -1.344863207 0
-4.858990339 -1.301962536 1.301962536
-4.383526266 -1.174562322 2.530830066
-4.500000002 0 -2.598076209
-5.019097823 0 -1.344863207
-5.196152423 0 0
-5.019097823 0 1.344863207
-4.500000002 0 2.598076209
-4.383526266 1.174562322 -2.530830066
-4.858990339 1.301962536 -1.301962536
-5.019097823 1.344863207 0
-4.858990339 1.301962536 1.301962536
-4.383526266 1.174562322 2.530830066
-4.024922362 2.323790006 -2.323790006
-4.383526266 2.530830066 -1.174562322
-4.500000002 2.598076209 0
-4.383526266 2.530830066 1.174562322
-4.024922362 2.323790006 2.323790006
4.024922362 -2.323790006 2.323790006
4.383526266 -2.530830066 1.174562322
4.500000002 -2.598076209 0
4.383526266 -2.530830066 -1.174562322
4.024922362 -2.323790006 -2.323790006
4.383526266 -1.174562322 2.530830066
4.858990339 -1.301962536 1.301962536
5.019097823 -1.344863207 0
4.858990339 -1.301962536 -1.301962536
4.383526266 -1.174562322 -2.530830066
4.500000002 0 2.598076209
5.019097823 0 1.344863207
5.196152423 0 0
5.019097823 0 -1.344863207
4.500000002 0 -2.598076209
4.383526266 1.174562322 2.530830066
4.858990339 1.301962536 1.301962536
5.019097823 1.344863207 0
4.858990339 1.301962536 -1.301962536
4.383526266 1.174562322 -2.530830066
4.024922362 2.323790006 2.323790006
4.383526266 2.530830066 1.174562322
4.500000002 2.598076209 0
4.383526266 2.530830066 -1.174562322
4.024922362 2.323790006 -2.323790006
-2.323790006 -4.024922362 2.323790006
-2.530830066 -4.383526266 1.174562322
-2.598076209 -4.500000002 0
-2.530830066 -4.383526266 -1.174562322
-2.323790006 -4.024922362 -2.323790006
-1.174562322 -4.383526266 2.530830066
-1.301962536 -4.858990339 1.301962536
-1.344863207 -5.019097823 0
-1.301962536 -4.858990339 -1.301962536
-1.174562322 -4.383526266 -2.530830066
0 -4.500000002 2.598076209
0 -5.019097823 1.344863207
0 -5.196152423 0
0 -5.019097823 -1.344863207
0 -4.500000002 -2.598076209
1.174562322 -4.383526266 2.530830066
1.301962536 -4.858990339 1.301962536
1.344863207 -5.019097823 0
1.301962536 -4.858990339 -1.301962536
1.174562322 -4.383526266 -2.530830066
2.323790006 -4.024922362 2.323790006
2.530830066 -4.383526266 1.174562322
2.598076209 -4.500000002 0
2.530830066 -4.383526266 -1.174562322
2.323790006 -4.024922362 -2.323790006
-2.323790006 4.024922362 -2.323790006
-2.530830066 4.383526266 -1.174562322
-2.598076209 4.500000002 0
-2.530830066 4.383526266 1.174562322
-2.323790006 4.024922362 2.323790006
-1.174562322 4.383526266 -2.530830066
-1.301962536 4.858990339 -1.301962536
-1.344863207 5.019097823 0
-1.301962536 4.858990339 1.301962536
-1.174562322 4.383526266 2.530830066
0 4.500000002 -2.598076209
0 5.019097823 -1.344863207
0 5.196152423 0
0 5.019097823 1.344863207
0 4.500000002 2.598076209
1.174562322 4.383526266 -2.530830066
1.301962536 4.858990339 -1.301962536
1.344863207 5.019097823 0
1.301962536 4.858990339 1.301962536
1.174562322 4.383526266 2.530830066
2.323790006 4.024922362 -2.323790006
2.530830066 4.383526266 -1.174562322
2.598076209 4.500000002 0
2.530830066 4.383526266 1.174562322
2.323790006 4.024922362 2.323790006
-2.323790006 2.323790006 4.024922362
-2.530830066 1.174562322 4.383526266
-2.598076209 0 4.500000002
-2.530830066 -1.174562322 4.383526266
-2.323790006 -2.323790006 4.024922362
-1.174562322 2.530830066 4.383526266
-1.301962536 1.301962536 4.858990339
-1.344863207 0 5.019097823
-1.301962536 -1.301962536 4.858990339
-1.174562322 -2.530830066 4.383526266
0 2.598076209 4.500000002
0 1.344863207 5.019097823
0 0 5.196152423
0 -1.344863207 5.019097823
0 -2.598076209 4.500000002
1.174562322 2.530830066 4.383526266
1.301962536 1.301962536 4.858990339
1.344863207 0 5.019097823
1.301962536 -1.301962536 4.858990339
1.174562322 -2.530830066 4.383526266
2.323790006 2.323790006 4.024922362
2.530830066 1.174562322 4.383526266
2.598076209 0 4.500000002
2.530830066 -1.174562322 4.383526266
2.323790006 -2.323790006 4.024922362
CELLS 288 1296
2 0 8
2 8 9
2 9 10
2 10 11
2 11 12
2 12 1
2 1 13
2 13 14
2 14 15
2 15 16
2 16 17
2 17 2
2 3 18
2 18 19
2 19 20
2 20 21
2 21 22
2 22 2
2 0 23
2 23 24
2 24 25
2 25 26
2 26 27
2 27 3
2 4 28
2 28 29
2 29 30
2 30 31
2 31 32
2 32 5
2 4 33
2 33 34
2 34 35
2 35 36
2 36 37
2 37 6
2 6 38
2 38 39
2 39 40
2 40 41
2 41 42
2 42 7
2 5 43
2 43 44
2 44 45
2 45 46
2 46 47
2 47 7
2 0 48
2 48 49
2 49 50
2 50 51
2 51 52
2 52 4
2 1 53
2 53 54
2 54 55
2 55 56
2 56 57
2 57 5
2 3 58
2 58 59
2 59 60
2 60 61
2 61 62
2 62 6
2 2 63
2 63 64
2 64 65
2 65 66
2 66 67
2 67 7
4 0 23 68 48
4 23 24 69 68
4 24 25 70 69
4 25 26 71 70
4 26 27 72 71
4 27 3 58 72
4 48 68 73 49
4 68 69 74 73
4 69 70 75 74
4 70 71 76 75
4 71 72 77 76
4 72 58 59 77
4 49 73 78 50
4 73 74 79 78
4 74 75 80 79
4 75 76 81 80
4 76 77 82 81
4 77 59 60 82
4 50 78 83 51
4 78 79 84 83
4 79 80 85 84
4 80 81 86 85
4 81 82 87 86
4 82 60 61 87
4 51 83 88 52
4 83 84 89 88
4 84 85 90 89
4 85 86 91 90
4 86 87 92 91
4 87 61 62 92
4 52 88 33 4
4 88 89 34 33
4 89 90 35 34
4 90 91 36 35
4 91 92 37 36
4 92 62 6 37
4 0 8 93 23
4 8 9 94 93
4 9 10 95 94
4 10 11 96 95
4 11 12 97 96
4 12 1 13 97
4 23 93 98 24
4 93 94 99 98
4 94 95 100 99
4 95 96 101 100
4 96 97 102 101
4 97 13 14 102
4 24 98 103 25
4 98 99 104 103
4 99 100 105 104
4 100 101 106 105
4 101 102 107 106
4 102 14 15 107
4 25 103 108 26
4 103 104 109 108
4 104 105 110 109
4 105 106 111 110
4 106 107 112 111
4 107 15 16 112
4 26 108 113 27
4 108 109 114 113
4 109 110 115 114
4 110 111 116 115
4 111 112 117 116
4 112 16 17 117
4 27 113 18 3
4 113 114 19 18
4 114 115 20 19
4 115 116 21 20
4 116 117 22 21
4 117 17 2 22
4 5 32 118 43
4 32 31 119 118
4 31 30 120 119
4 30 29 121 120
4 29 28 122 121
4 28 4 33 122
4 43 118 123 44
4 118 119 124 123
4 119 120 125 124
4 120 121 126 125
4 121 122 127 126
4 122 33 34 127
4 44 123 128 45
4 123 124 129 128
4 124 125 130 129
4 125 126 131 130
4 126 127 132 131
4 127 34 35 132
4 45 128 133 46
4 128 129 134 133
4 129 130 135 134
4 130 131 136 135
4 131 132 137 136
4 132 35 36 137
4 46 133 138 47
4 133 134 139 138
4 134 135 140 139
4 135 136 141 140
4 136 137 142 141
4 137 36 37 142
4 47 138 42 7
4 138 139 41 42
4 139 140 40 41
4 140 141 39 40
4 141 142 38 39
4 142 37 6 38
4 1 12 143 53
4 12 11 144 143
4 11 10 145 144
4 10 9 146 145
4 9 8 147 146
4 8 0 48 147
4 53 143 148 54
4 143 144 149 148
4 144 145 150 149
4 145 146 151 150
4 146 147 152 151
4 147 48 49 152
4 54 148 153 55
4 148 149 154 153
4 149 150 155 154
4 150 151 156 155
4 151 152 157 156
4 152 49 50 157
4 55 153 158 56
4 153 154 159 158
4 154 155 160 159
4 155 156 161 160
4 156 157 162 161
4 157 50 51 162
4 56 158 163 57
4 158 159 164 163
4 159 160 165 164
4 160 161 166 165
4 161 162 167 166
4 162 51 52 167
4 57 163 32 5
4 163 164 31 32
4 164 165 30 31
4 165 166 29 30
4 166 167 28 29
4 167 52 4 28
4 3 18 168 58
4 18 19 169 168
4 19 20 170 169
4 20 21 171 170
4 21 22 172 171
4 22 2 63 172
4 58 168 173 59
4 168 169 174 173
4 169 170 175 174
4 170 171 176 175
4 171 172 177 176
4 172 63 64 177
4 59 173 178 60
4 173 174 179 178
4 174 175 180 179
4 175 176 181 180
4 176 177 182 181
4 177 64 65 182
4 60 178 183 61
4 178 179 184 183
4 179 180 185 184
4 180 181 186 185
4 181 182 187 186
4 182 65 66 187
4 61 183 188 62
4 183 184 189 188
4 184 185 190 189
4 185 186 191 190
4 186 187 192 191
4 187 66 67 192
4 62 188 38 6
4 188 189 39 38
4 189 190 40 39
4 190 191 41 40
4 191 192 42 41
4 192 67 7 42
4 2 17 193 63
4 17 16 194 193
4 16 15 195 194
4 15 14 196 195
4 14 13 197 196
4 13 1 53 197
4 63 193 198 64
4 193 194 199 198
4 194 195 200 199
4 195 196 201 200
4 196 197 202 201
4 197 53 54 202
4 64 198 203 65
4 198 199 204 203
4 199 200 205 204
4 200 201 206 205
4 201 202 207 206
4 202 54 55 207
4 65 203 208 66
4 203 204 209 208
4 204 205 210 209
4 205 206 211 210
4 206 207 212 211
4 207 55 56 212
4 66 208 213 67
4 208 209 214 213
4 209 210 215 214
4 210 211 216 215
4 211 212 217 216
4 212 56 57 217
4 67 213 47 7
4 213 214 46 47
4 214 215 45 46
4 215 216 44 45
4 216 217 43 44
4 217 57 5 43
CELL_TYPES 288
3
3
3
3
3
3
3
3
3
3
3
3
3
3
3
3
3
3
3
3
3
3
3
3
3
3
3
3
3
3
3
3
3
3
3
3
3
3
3
3
3
3
3
3
3
3
3
3
3
3
3
3
3
3
3
3
3
3
3
3
3
3
3
3
3
3
3
3
3
3
3
3
9
9
9
9
9
9
9
9
9
9
9
9
9
9
9
9
9
9
9
9
9
9
9
9
9
9
9
9
9
9
9
9
9
9
9
9
9
9
9
9
9
9
9
9
9
9
9
9
9
9
9
9
9
9
9
9
9
9
9
9
9
9
9
9
9
9
9
9
9
9
9
9
9
9
9
9
9
9
9
9
9
9
9
9
9
9
9
9
9
9
9
9
9
9
9
9
9
9
9
9
9
9
9
9
9
9
9
9
9
9
9
9
9
9
9
9
9
9
9
9
9
9
9
9
9
9
9
9
9
9
9
9
9
9
9
9
9
9
9
9
9
9
9
9
9
9
9
9
9
9
9
9
9
9
9
9
9
9
9
9
9
9
9
9
9
9
9
9
9
9
9
9
9
9
9
9
9
9
9
9
9
9
9
9
9
9
9
9
9
9
9
9
9
9
9
9
9
9
9
9
9
9
9
9
9
9
9
9
9
9
9
9
9
9
9
9
POINT_DATA 218
SCALARS GLOBAL_ID int 1
LOOKUP_TABLE default
0 
1 
2 
3 
4 
5 
6 
7 
8 
9 
10 
11 
12 
13 
14 
15 
16 
17 
18 
19 
20 
21 
22 
23 
24 
25 
26 
27 
28 
29 
30 
31 
32 
33 
34 
35 
36 
37 
38 
39 
40 
41 
42 
43 
44 
45 
46 
47 
48 
49 
50 
51 
52 
53 
54 
55 
56 
57 
58 
59 
60 
61 
62 
63 
64 
65 
66 
67 
68 
69 
70 
71 
72 
73 
74 
75 
76 
77 
78 
79 
80 
81 
82 
83 
84 
85 
86 
87 
88 
89 
90 
91 
92 
93 
94 
95 
96 
97 
98 
99 
100 
101 
102 
103 
104 
105 
106 
107 
108 
109 
110 
111 
112 
113 
114 
115 
116 
117 
118 
119 
120 
121 
122 
123 
124 
125 
126 
127 
128 
129 
130 
131 
132 
133 
134 
135 
136 
137 
138 
139 
140 
141 
142 
143 
144 
145 
146 
147 
148 
149 
150 
151 
152 
153 
154 
155 
156 
157 
158 
159 
160 
161 
162 
163 
164 
165 
166 
167 
168 
169 
170 
171 
172 
173 
174 
175 
176 
177 
178 
179 
180 
181 
182 
183 
184 
185 
186 
187 
188 
189 
190 
191 
192 
193 
194 
195 
196 
197 
198 
199 
200 
201 
202 
203 
204 
205 
206 
207 
208 
209 
210 
211 
212 
213 
214 
215 
216 
217 
SCALARS MeshTFIMapping int 1
LOOKUP_TABLE default
0 
0 
0 
0 
0 
0 
0 
0 
0 
0 
0 
0 
0 
0 
0 
0 
0 
0 
0 
0 
0 
0 
0 
14 
15 
16 
17 
18 
0 
0 
0 
0 
0 
19 
20 
21 
22 
23 
0 
0 
0 
0 
0 
0 
0 
0 
0 
0 
19 
20 
21 
22 
23 
19 
20 
21 
22 
23 
14 
15 
16 
17 
18 
14 
15 
16 
17 
18 
0 
0 
0 
0 
0 
0 
0 
0 
0 
0 
0 
0 
0 
0 
0 
0 
0 
0 
0 
0 
0 
0 
0 
0 
0 
0 
0 
0 
0 
0 
0 
0 
0 
0 
0 
0 
0 
0 
0 
0 
0 
0 
0 
0 
0 
0 
0 
0 
0 
0 
0 
0 
0 
0 
0 
0 
0 
0 
0 
0 
0 
0 
0 
0 
0 
0 
0 
0 
0 
0 
0 
0 
0 
0 
0 
0 
0 
0 
0 
0 
0 
0 
0 
0 
0 
0 
0 
0 
0 
0 
0 
0 
0 
0 
0 
0 
0 
0 
0 
0 
0 
0 
0 
0 
0 
0 
0 
0 
0 
0 
0 
0 
0 
0 
0 
0 
0 
0 
0 
0 
0 
0 
0 
0 
0 
0 
0 
0 
0 
0 
0 
0 
0 
0 
0 
0 
0 
0 
0 
0 
0 
0 
0 
0 
0 
0 
0 
0 
0 
0 
SCALARS Uvel double 1
LOOKUP_TABLE default
-3.198930363 
-3.928483903 
-5.305874875 
-6.035428414 
3.198930363 
3.928483903 
6.035428414 
5.305874875 
-3.866984829 
-4.322329573 
-4.568302023 
-4.605392977 
-4.408537884 
-4.825592437 
-5.748745576 
-6.529677711 
-6.865623102 
-6.48414112 
-5.367373948 
-4.912029204 
-4.666056755 
-4.6289658 
-4.825820893 
-4.162328109 
-5.362073776 
-6.529677711 
-7.252294902 
-7.147405448 
3.866984829 
4.322329573 
4.568302023 
4.605392977 
4.408537884 
4.162328109 
5.362073776 
6.529677711 
7.252294902 
7.147405448 
5.367373948 
4.912029204 
4.666056755 
4.6289658 
4.825820893 
4.825592437 
5.748745576 
6.529677711 
6.865623102 
6.48414112 
-1.772300183 
-0.7448943855 
1.61918509e-16 
0.7448943855 
1.772300183 
-2.435564511 
-1.131566185 
2.566827049e-16 
1.131566185 
2.435564511 
-4.757377522 
-2.635115511 
6.377363818e-16 
2.635115511 
4.757377522 
-4.094113194 
-2.248443711 
5.429721859e-16 
2.248443711 
4.094113194 
-2.38094408 
-3.979834596 
-6.529677711 
-7.865950709 
-6.853414698 
-0.8057659904 
-1.676531932 
-6.529677711 
-7.557826845 
-4.691882103 
7.599596259e-17 
2.579228821e-17 
6.529677711 
7.738626026e-16 
7.236589283e-16 
0.8057659904 
1.676531932 
6.529677711 
7.557826845 
4.691882103 
2.38094408 
3.979834596 
6.529677711 
7.865950709 
6.853414698 
-4.822479835 
-5.331615772 
-5.612537738 
-5.626736246 
-5.358590008 
-5.760689622 
-6.094289037 
-6.282745656 
-6.28199169 
-6.08985374 
-6.529677711 
-6.529677711 
-6.529677711 
-6.529677711 
-6.529677711 
-6.853679056 
-6.520079641 
-6.331623022 
-6.332376989 
-6.524514939 
-6.487253721 
-5.978117785 
-5.697195819 
-5.682997311 
-5.951143548 
5.358590008 
5.626736246 
5.612537738 
5.331615772 
4.822479835 
6.08985374 
6.28199169 
6.282745656 
6.094289037 
5.760689622 
6.529677711 
6.529677711 
6.529677711 
6.529677711 
6.529677711 
6.524514939 
6.332376989 
6.331623022 
6.520079641 
6.853679056 
5.951143548 
5.682997311 
5.697195819 
5.978117785 
6.487253721 
-2.968562082 
-3.23670832 
-3.222509812 
-2.941587846 
-2.432451909 
-1.472674349 
-1.664812299 
-1.665566265 
-1.477109646 
-1.143510232 
3.426052514e-16 
3.928089258e-16 
3.938416944e-16 
3.454268279e-16 
2.605370504e-16 
1.472674349 
1.664812299 
1.665566265 
1.477109646 
1.143510232 
2.968562082 
3.23670832 
3.222509812 
2.941587846 
2.432451909 
-4.097225795 
-3.588089859 
-3.307167893 
-3.292969385 
-3.561115622 
-2.236499665 
-1.90290025 
-1.714443631 
-1.715197598 
-1.907335548 
5.391178404e-16 
4.54228063e-16 
4.058131964e-16 
4.068459651e-16 
4.570496395e-16 
2.236499665 
1.90290025 
1.714443631 
1.715197598 
1.907335548 
4.097225795 
3.588089859 
3.307167893 
3.292969385 
3.561115622 
-6.095240419 
-7.330559235 
-6.529677711 
-4.51522607 
-3.139118358 
-4.156490629 
-7.04501366 
-6.529677711 
-2.189345117 
-1.341157465 
6.415907273e-16 
7.264805047e-16 
6.529677711 
7.317438611e-17 
1.580641636e-16 
4.156490629 
7.04501366 
6.529677711 
2.189345117 
1.341157465 
6.095240419 
7.330559235 
6.529677711 
4.51522607 
3.139118358 
SCALARS Vvel double 1
LOOKUP_TABLE default
2.191578165 
-1.826801395 
-1.826801395 
2.191578165 
-2.191578165 
1.826801395 
-2.191578165 
1.826801395 
1.882268873 
1.288798203 
0.5471651548 
-0.2703145039 
-1.100604365 
-2.487510044 
-2.883441823 
-3.01378467 
-2.883441823 
-2.487510044 
1.882268873 
1.288798203 
0.5471651548 
-0.2703145039 
-1.100604365 
2.678977963 
2.935246021 
3.01378467 
2.935246021 
2.678977963 
-1.882268873 
-1.288798203 
-0.5471651548 
0.2703145039 
1.100604365 
-2.678977963 
-2.935246021 
-3.01378467 
-2.935246021 
-2.678977963 
-1.882268873 
-1.288798203 
-0.5471651548 
0.2703145039 
1.100604365 
2.487510044 
2.883441823 
3.01378467 
2.883441823 
2.487510044 
1.546708646 
0.7864968 
-1.845410875e-16 
-0.7864968 
-1.546708646 
-1.436164592 
-0.772615907 
1.845410875e-16 
0.772615907 
1.436164592 
1.546708646 
0.7864968 
-1.845410875e-16 
-0.7864968 
-1.546708646 
-1.436164592 
-0.772615907 
1.845410875e-16 
0.772615907 
1.436164592 
1.978578236 
2.179498752 
2.223109892 
2.179498752 
1.978578236 
1.011508891 
1.002529764 
0.836754616 
1.002529764 
1.011508891 
-1.361262206e-16 
-5.12364431e-17 
0.7738083827 
-5.12364431e-17 
-1.361262206e-16 
-1.011508891 
-1.002529764 
-0.836754616 
-1.002529764 
-1.011508891 
-1.978578236 
-2.179498752 
-2.223109892 
-2.179498752 
-1.978578236 
2.490093899 
1.751073131 
0.6701377173 
-0.5477635852 
-1.685928637 
2.869468806 
2.065877216 
0.7474415015 
-0.7586968653 
-2.083835903 
2.996918276 
2.177030051 
0.7738083827 
-0.836754616 
-2.223109892 
2.869468806 
2.065877216 
0.7474415015 
-0.7586968653 
-2.083835903 
2.490093899 
1.751073131 
0.6701377173 
-0.5477635852 
-1.685928637 
1.685928637 
0.5477635852 
-0.6701377173 
-1.751073131 
-2.490093899 
2.083835903 
0.7586968653 
-0.7474415015 
-2.065877216 
-2.869468806 
2.223109892 
0.836754616 
-0.7738083827 
-2.177030051 
-2.996918276 
2.083835903 
0.7586968653 
-0.7474415015 
-2.065877216 
-2.869468806 
1.685928637 
0.5477635852 
-0.6701377173 
-1.751073131 
-2.490093899 
-0.973371351 
-0.3162514529 
0.386904191 
1.010982542 
1.437656381 
-0.5583621468 
-0.2032922121 
0.2002763465 
0.5535501309 
0.7688718484 
1.361262206e-16 
5.12364431e-17 
-4.738209795e-17 
-1.333046442e-16 
-1.835083187e-16 
0.5583621468 
0.2032922121 
-0.2002763465 
-0.5535501309 
-0.7688718484 
0.973371351 
0.3162514529 
-0.386904191 
-1.010982542 
-1.437656381 
1.437656381 
1.010982542 
0.386904191 
-0.3162514529 
-0.973371351 
0.7688718484 
0.5535501309 
0.2002763465 
-0.2032922121 
-0.5583621468 
-1.835083187e-16 
-1.333046442e-16 
-4.738209795e-17 
5.12364431e-17 
1.361262206e-16 
-0.7688718484 
-0.5535501309 
-0.2002763465 
0.2032922121 
0.5583621468 
-1.437656381 
-1.010982542 
-0.386904191 
0.3162514529 
0.973371351 
-2.197444299 
-2.773805958 
-2.996918276 
-2.773805958 
-2.197444299 
-1.287327825 
-1.822044317 
-2.177030051 
-1.822044317 
-1.287327825 
1.835083187e-16 
1.333046442e-16 
0.7738083827 
1.333046442e-16 
1.835083187e-16 
1.287327825 
1.822044317 
2.177030051 
1.822044317 
1.287327825 
2.197444299 
2.773805958 
2.996918276 
2.773805958 
2.197444299 
VECTORS Velo double
-3.156693391 1.367277313 1.789416078 
-3.523646154 2.032069061 -1.491577093 
3.006031558 4.49760865 -1.491577093 
3.37298432 5.162400398 1.789416078 
1.367277313 3.156693391 -1.789416078 
2.032069061 3.523646154 1.491577093 
-5.162400398 3.37298432 -1.789416078 
-4.49760865 3.006031558 1.491577093 
-3.237428711 2.231313679 1.742642356 
-3.225996574 2.88670053 1.266270076 
-3.230277339 3.230277339 0.5471651548 
-3.292086839 3.220922369 -0.2655894201 
-3.411455922 2.823158144 -1.018961643 
-3.823081851 3.36485685 -1.880380846 
-3.422886739 5.034379626 -2.073928785 
-2.131067577 6.529677711 -2.131067577 
-0.1580478866 7.150164864 -2.073928785 
1.831784921 6.429659724 -1.880380846 
3.292249 4.298364032 1.742642356 
3.303681137 3.642977181 1.266270076 
3.299400373 3.299400373 0.5471651548 
3.237590872 3.308755343 -0.2655894201 
3.118221789 3.706519567 -1.018961643 
-3.600001794 2.727780505 2.025116988 
-3.357573147 4.651568246 2.111189193 
-2.131067577 6.529677711 2.131067577 
-0.09273429433 7.532976244 2.111189193 
2.054864978 7.066736069 2.025116988 
2.231313679 3.237428711 -1.742642356 
2.88670053 3.225996574 -1.266270076 
3.230277339 3.230277339 -0.5471651548 
3.220922369 3.292086839 0.2655894201 
2.823158144 3.411455922 1.018961643 
0.5623263106 4.481583261 -2.025116988 
-0.5819595205 5.707162841 -2.111189193 
-2.131067577 6.529677711 -2.131067577 
-3.846798373 6.477381648 -2.111189193 
-5.092540462 5.312933313 -2.025116988 
-4.298364032 3.292249 -1.742642356 
-3.642977181 3.303681137 -1.266270076 
-3.299400373 3.299400373 -0.5471651548 
-3.308755343 3.237590872 0.2655894201 
-3.706519567 3.118221789 1.018961643 
1.002510581 4.99331443 1.880380846 
-0.4471170609 6.071344017 2.073928785 
-2.131067577 6.529677711 2.131067577 
-3.711955913 6.113200472 2.073928785 
-4.652356192 4.801202144 1.880380846 
-2.041136228 0.009248712679 1.169201836 
-0.8609355843 -0.3350044444 0.5656914387 
1.61918509e-16 1.304902543e-16 -1.304902543e-16 
0.5780898653 0.720590151 -0.5656914387 
1.028577736 1.763051468 -1.169201836 
-2.57935595 0.403553464 -1.085638386 
-1.231935888 -0.2256113166 -0.5557075425 
2.566827049e-16 1.304902543e-16 1.304902543e-16 
0.9540821172 0.811353075 0.5557075425 
1.639165529 2.032011044 1.085638386 
3.613730545 3.255590136 1.169201836 
2.403903268 1.209815377 0.5656914387 
-6.377363818e-16 -1.304902543e-16 -1.304902543e-16 
-2.686748987 0.1542207818 -0.5656914387 
-4.626289036 1.50178738 -1.169201836 
3.075510823 2.861285385 -1.085638386 
2.032902964 1.100422249 -0.5557075425 
-5.429721859e-16 -1.304902543e-16 1.304902543e-16 
-2.310756735 0.06345785778 0.5557075425 
-4.015701244 1.232827805 1.085638386 
-2.767293637 0.599869772 1.25136275 
-3.343193151 2.835977033 1.170295708 
-1.925269642 6.529677711 1.111554945 
1.643573568 7.909011901 1.170295708 
3.762384075 5.929807939 1.25136275 
-1.090113429 -0.4348159682 0.5431361285 
-1.848384674 0.5225895221 0.3552457399 
-0.8082428939 6.529677711 0.2165680304 
4.681293037 6.007088189 0.3552457399 
3.896653291 2.749182457 0.5431361285 
7.599596259e-17 1.178887652e-16 -6.806311025e-17 
2.579228821e-17 4.949060365e-17 -1.326096726e-17 
0.7738083827 6.529677711 4.738209795e-17 
-7.738626026e-16 -4.949060365e-17 -1.326096726e-17 
-7.236589283e-16 -1.178887652e-16 -6.806311025e-17 
0.3716633006 1.113228909 -0.5431361285 
0.5225895221 1.848384674 -0.3552457399 
-0.8082428939 6.529677711 -0.2165680304 
-6.007088189 4.681293037 -0.3552457399 
-4.615103419 1.20113758 -0.5431361285 
0.599869772 2.767293637 -1.25136275 
0.007620020381 4.38402191 -1.170295708 
-1.925269642 6.529677711 -1.111554945 
-4.979146699 6.360967023 -1.170295708 
-5.929807939 3.762384075 -1.25136275 
-3.375649135 3.619588126 2.227207692 
-3.008598637 4.41940437 1.705750014 
-2.806268866 4.860600262 0.6701377173 
-2.920598531 4.810987024 -0.5335857917 
-3.332252355 4.263689974 -1.507940415 
-2.840953247 5.202673621 2.506106142 
-2.077312179 5.752658156 1.999976447 
-1.62609423 6.06866629 0.7474415015 
-1.809522763 6.018736199 -0.7344946978 
-2.556536482 5.619658634 -1.819958435 
-1.498459136 6.529677711 2.595407361 
-0.5634568382 6.529677711 2.102849551 
7.996548909e-16 6.529677711 0.7738083827 
-0.2165680304 6.529677711 -0.8082428939 
-1.111554945 6.529677711 -1.925269642 
0.4238856049 6.981870869 2.506106142 
1.187526674 6.431886334 1.999976447 
1.638744623 6.1158782 0.7474415015 
1.455316089 6.165808291 -0.7344946978 
0.7083023707 6.564885856 -1.819958435 
2.279217638 6.174928447 2.227207692 
2.646268135 5.375112204 1.705750014 
2.848597907 4.933916311 0.6701377173 
2.734268241 4.983529549 -0.5335857917 
2.322614418 5.530826599 -1.507940415 
2.026337648 5.01766018 1.507940415 
2.706137709 4.934806038 0.5335857917 
2.806268866 4.860600262 -0.6701377173 
2.323017129 4.815225037 -1.705750014 
1.446830696 4.73319197 -2.227207692 
0.5958037743 6.145035378 1.819958435 
1.442275414 6.117139829 0.7344946978 
1.62609423 6.06866629 -0.7474415015 
1.077323956 6.020604192 -1.999976447 
0.1409991238 5.926124147 -2.506106142 
-1.111554945 6.529677711 1.925269642 
-0.2165680304 6.529677711 0.8082428939 
0 6.529677711 -0.7738083827 
-0.5634568382 6.529677711 -2.102849551 
-1.498459136 6.529677711 -2.595407361 
-2.669035078 6.039509111 1.819958435 
-1.822563438 6.06740466 0.7344946978 
-1.638744623 6.1158782 -0.7474415015 
-2.187514896 6.163940297 -1.999976447 
-3.123839728 6.258420343 -2.506106142 
-3.628529124 4.776856393 1.507940415 
-2.948729064 4.859710536 0.5335857917 
-2.848597907 4.933916311 -0.6701377173 
-3.331849643 4.979291537 -1.705750014 
-4.208036077 5.061324604 -2.227207692 
-2.788502627 1.107295937 -0.8706098035 
-2.838815101 1.556444651 -0.3080659 
-2.790775362 1.611254904 0.386904191 
-2.661753387 1.272883588 0.9848152283 
-2.428034887 0.6594240316 1.285878958 
-1.492881324 0.1184677958 -0.4876563923 
-1.621268782 0.3816833138 -0.1968072609 
-1.608813471 0.4310802698 0.2002763465 
-1.462676317 0.2483310895 0.5358920733 
-1.201470057 -0.06576303722 0.6715091161 
3.426052514e-16 6.806311025e-17 1.178887652e-16 
3.928089258e-16 1.326096726e-17 4.949060365e-17 
3.938416944e-16 2.411584852e-32 -4.738209795e-17 
3.454268279e-16 3.450178067e-17 -1.287623986e-16 
2.605370504e-16 9.175415925e-17 -1.589228658e-16 
1.35210705 0.6438445407 0.4876563923 
1.594901609 0.4800869441 0.1968072609 
1.608813471 0.4310802698 -0.2002763465 
1.390880393 0.5162771258 -0.5358920733 
1.007622073 0.6576874889 -0.6715091161 
2.353197726 1.861266143 0.8706098035 
2.76732816 1.680263665 0.3080659 
2.790775362 1.611254904 -0.386904191 
2.433226219 1.668704255 -0.9848152283 
1.785095409 1.773027875 -1.285878958 
3.226831886 2.605414817 1.285878958 
2.993113385 1.991955261 0.9848152283 
2.864091411 1.653583945 0.386904191 
2.816051672 1.708394198 -0.3080659 
2.866364145 2.157542912 -0.8706098035 
2.063368795 0.9405739701 0.6715091161 
1.802162535 0.6264798433 0.5358920733 
1.656025381 0.443730663 0.2002763465 
1.64357007 0.493127619 -0.1968072609 
1.771957528 0.756343137 -0.4876563923 
-5.391178404e-16 -9.175415925e-17 -1.589228658e-16 
-4.54228063e-16 -3.450178067e-17 -1.287623986e-16 
-4.058131964e-16 2.48488916e-32 -4.738209795e-17 
-4.068459651e-16 -1.326096726e-17 4.949060365e-17 
-4.570496395e-16 -6.806311025e-17 1.178887652e-16 
-2.257216779 0.2171234439 -0.6715091161 
-1.873958459 0.358533807 -0.5358920733 
-1.656025381 0.443730663 -0.2002763465 
-1.669937243 0.3947239887 0.1968072609 
-1.912731802 0.2309663921 0.4876563923 
-3.869771364 1.491810974 -1.285878958 
-3.221640554 1.596134594 -0.9848152283 
-2.864091411 1.653583945 -0.386904191 
-2.887538612 1.584575184 0.3080659 
-3.301669046 1.403572706 0.8706098035 
3.106396021 5.513575646 -1.389785802 
0.9634145403 7.634433856 -1.48941274 
-2.595407361 6.529677711 -1.498459136 
-4.023352179 3.110555078 -1.48941274 
-3.42328169 1.016102065 -1.389785802 
3.313060544 2.734857575 -0.6912388586 
3.776795984 6.186357882 -0.645640164 
-2.102849551 6.529677711 -0.5634568382 
-2.752881728 0.3433198292 -0.645640164 
-1.673706176 -0.4204910853 -0.6912388586 
-6.415907273e-16 -1.589228658e-16 9.175415925e-17 
-7.264805047e-16 -1.287623986e-16 3.450178067e-17 
-0.7738083827 6.529677711 4.738209795e-17 
7.317438611e-17 1.287623986e-16 3.450178067e-17 
1.580641636e-16 1.589228658e-16 9.175415925e-17 
-4.227418143 0.7646907635 0.6912388586 
-6.186357882 3.776795984 0.645640164 
-2.102849551 6.529677711 0.5634568382 
0.3433198292 2.752881728 0.645640164 
0.7593485765 1.549675726 0.6912388586 
-5.513575646 3.106396021 1.389785802 
-5.208534028 5.664267045 1.48941274 
-2.595407361 6.529677711 1.498459136 
-0.2217673084 5.080721889 1.48941274 
1.016102065 3.42328169 1.389785802 
CELL_DATA 288
SCALARS GLOBAL_ID int 1
LOOKUP_TABLE default
0 
1 
2 
3 
4 
5 
6 
7 
8 
9 
10 
11 
12 
13 
14 
15 
16 
17 
18 
19 
20 
21 
22 
23 
24 
25 
26 
27 
28 
29 
30 
31 
32 
33 
34 
35 
36 
37 
38 
39 
40 
41 
42 
43 
44 
45 
46 
47 
48 
49 
50 
51 
52 
53 
54 
55 
56 
57 
58 
59 
60 
61 
62 
63 
64 
65 
66 
67 
68 
69 
70 
71 
0 
1 
2 
3 
4 
5 
6 
7 
8 
9 
10 
11 
12 
13 
14 
15 
16 
17 
18 
19 
20 
21 
22 
23 
24 
25 
26 
27 
28 
29 
30 
31 
32 
33 
34 
35 
36 
37 
38 
39 
40 
41 
42 
43 
44 
45 
46 
47 
48 
49 
50 
51 
52 
53 
54 
55 
56 
57 
58 
59 
60 
61 
62 
63 
64 
65 
66 
67 
68 
69 
70 
71 
72 
73 
74 
75 
76 
77 
78 
79 
80 
81 
82 
83 
84 
85 
86 
87 
88 
89 
90 
91 
92 
93 
94 
95 
96 
97 
98 
99 
100 
101 
102 
103 
104 
105 
106 
107 
108 
109 
110 
111 
112 
113 
114 
115 
116 
117 
118 
119 
120 
121 
122 
123 
124 
125 
126 
127 
128 
129 
130 
131 
132 
133 
134 
135 
136 
137 
138 
139 
140 
141 
142 
143 
144 
145 
146 
147 
148 
149 
150 
151 
152 
153 
154 
155 
156 
157 
158 
159 
160 
161 
162 
163 
164 
165 
166 
167 
168 
169 
170 
171 
172 
173 
174 
175 
176 
177 
178 
179 
180 
181 
182 
183 
184 
185 
186 
187 
188 
189 
190 
191 
192 
193 
194 
195 
196 
197 
198 
199 
200 
201 
202 
203 
204 
205 
206 
207 
208 
209 
210 
211 
212 
213 
214 
215 
