# vtk DataFile Version 3.0
MOAB 4.7.1pre
ASCII
DATASET UNSTRUCTURED_GRID
POINTS 4754 double
0 0 -1
0.1045284633 0 -0.9945218954
0.1032415444 0.01635185423 -0.9945218954
0.09941247613 0.03230107155 -0.9945218954
0.09313554273 0.04745492928 -0.9945218954
0.08456530318 0.06144028915 -0.9945218954
0.0739127852 0.0739127852 -0.9945218954
0.06144028915 0.08456530318 -0.9945218954
0.04745492928 0.09313554273 -0.9945218954
0.03230107155 0.09941247613 -0.9945218954
0.01635185423 0.1032415444 -0.9945218954
6.400522398e-18 0.1045284633 -0.9945218954
-0.01635185423 0.1032415444 -0.9945218954
-0.03230107155 0.09941247613 -0.9945218954
-0.04745492928 0.09313554273 -0.9945218954
-0.06144028915 0.08456530318 -0.9945218954
-0.0739127852 0.0739127852 -0.9945218954
-0.08456530318 0.06144028915 -0.9945218954
-0.09313554273 0.04745492928 -0.9945218954
-0.09941247613 0.03230107155 -0.9945218954
-0.1032415444 0.01635185423 -0.9945218954
-0.1045284633 1.28010448e-17 -0.9945218954
-0.1032415444 -0.01635185423 -0.9945218954
-0.09941247613 -0.03230107155 -0.9945218954
-0.09313554273 -0.04745492928 -0.9945218954
-0.08456530318 -0.06144028915 -0.9945218954
-0.0739127852 -0.0739127852 -0.9945218954
-0.06144028915 -0.08456530318 -0.9945218954
-0.04745492928 -0.09313554273 -0.9945218954
-0.03230107155 -0.09941247613 -0.9945218954
-0.01635185423 -0.1032415444 -0.9945218954
-1.920156719e-17 -0.1045284633 -0.9945218954
0.01635185423 -0.1032415444 -0.9945218954
0.03230107155 -0.09941247613 -0.9945218954
0.04745492928 -0.09313554273 -0.9945218954
0.06144028915 -0.08456530318 -0.9945218954
0.0739127852 -0.0739127852 -0.9945218954
0.08456530318 -0.06144028915 -0.9945218954
0.09313554273 -0.04745492928 -0.9945218954
0.09941247613 -0.03230107155 -0.9945218954
0.1032415444 -0.01635185423 -0.9945218954
0.2079116908 0 -0.9781476007
0.2053519529 0.03252455413 -0.9781476007
0.1977357684 0.06424824579 -0.9781476007
0.185250673 0.09438993242 -0.9781476007
0.1682040912 0.1222074256 -0.9781476007
0.1470157665 0.1470157665 -0.9781476007
0.1222074256 0.1682040912 -0.9781476007
0.09438993242 0.185250673 -0.9781476007
0.06424824579 0.1977357684 -0.9781476007
0.03252455413 0.2053519529 -0.9781476007
1.273091933e-17 0.2079116908 -0.9781476007
-0.03252455413 0.2053519529 -0.9781476007
-0.06424824579 0.1977357684 -0.9781476007
-0.09438993242 0.185250673 -0.9781476007
-0.1222074256 0.1682040912 -0.9781476007
-0.1470157665 0.1470157665 -0.9781476007
-0.1682040912 0.1222074256 -0.9781476007
-0.185250673 0.09438993242 -0.9781476007
-0.1977357684 0.06424824579 -0.9781476007
-0.2053519529 0.03252455413 -0.9781476007
-0.2079116908 2.546183867e-17 -0.9781476007
-0.2053519529 -0.03252455413 -0.9781476007
-0.1977357684 -0.06424824579 -0.9781476007
-0.185250673 -0.09438993242 -0.9781476007
-0.1682040912 -0.1222074256 -0.9781476007
-0.1470157665 -0.1470157665 -0.9781476007
-0.1222074256 -0.1682040912 -0.9781476007
-0.09438993242 -0.185250673 -0.9781476007
-0.06424824579 -0.1977357684 -0.9781476007
-0.03252455413 -0.2053519529 -0.9781476007
-3.8192758e-17 -0.2079116908 -0.9781476007
0.03252455413 -0.2053519529 -0.9781476007
0.06424824579 -0.1977357684 -0.9781476007
0.09438993242 -0.185250673 -0.9781476007
0.1222074256 -0.1682040912 -0.9781476007
0.1470157665 -0.1470157665 -0.9781476007
0.1682040912 -0.1222074256 -0.9781476007
0.185250673 -0.09438993242 -0.9781476007
0.1977357684 -0.06424824579 -0.9781476007
0.2053519529 -0.03252455413 -0.9781476007
0.3090169944 0 -0.9510565163
0.3052124824 0.0483409082 -0.9510565163
0.2938926261 0.09549150281 -0.9510565163
0.2753361581 0.1402907797 -0.9510565163
0.25 0.181635632 -0.9510565163
0.2185080122 0.2185080122 -0.9510565163
0.181635632 0.25 -0.9510565163
0.1402907797 0.2753361581 -0.9510565163
0.09549150281 0.2938926261 -0.9510565163
0.0483409082 0.3052124824 -0.9510565163
1.892183365e-17 0.3090169944 -0.9510565163
-0.0483409082 0.3052124824 -0.9510565163
-0.09549150281 0.2938926261 -0.9510565163
-0.1402907797 0.2753361581 -0.9510565163
-0.181635632 0.25 -0.9510565163
-0.2185080122 0.2185080122 -0.9510565163
-0.25 0.181635632 -0.9510565163
-0.2753361581 0.1402907797 -0.9510565163
-0.2938926261 0.09549150281 -0.9510565163
-0.3052124824 0.0483409082 -0.9510565163
-0.3090169944 3.78436673e-17 -0.9510565163
-0.3052124824 -0.0483409082 -0.9510565163
-0.2938926261 -0.09549150281 -0.9510565163
-0.2753361581 -0.1402907797 -0.9510565163
-0.25 -0.181635632 -0.9510565163
-0.2185080122 -0.2185080122 -0.9510565163
-0.181635632 -0.25 -0.9510565163
-0.1402907797 -0.2753361581 -0.9510565163
-0.09549150281 -0.2938926261 -0.9510565163
-0.0483409082 -0.3052124824 -0.9510565163
-5.676550096e-17 -0.3090169944 -0.9510565163
0.0483409082 -0.3052124824 -0.9510565163
0.09549150281 -0.2938926261 -0.9510565163
0.1402907797 -0.2753361581 -0.9510565163
0.181635632 -0.25 -0.9510565163
0.2185080122 -0.2185080122 -0.9510565163
0.25 -0.181635632 -0.9510565163
0.2753361581 -0.1402907797 -0.9510565163
0.2938926261 -0.09549150281 -0.9510565163
0.3052124824 -0.0483409082 -0.9510565163
0.4067366431 0 -0.9135454576
0.4017290401 0.06362762917 -0.9135454576
0.3868295348 0.1256885349 -0.9135454576
0.3624050026 0.1846545719 -0.9135454576
0.3290568565 0.2390738004 -0.9135454576
0.2876062385 0.2876062385 -0.9135454576
0.2390738004 0.3290568565 -0.9135454576
0.1846545719 0.3624050026 -0.9135454576
0.1256885349 0.3868295348 -0.9135454576
0.06362762917 0.4017290401 -0.9135454576
2.49054364e-17 0.4067366431 -0.9135454576
-0.06362762917 0.4017290401 -0.9135454576
-0.1256885349 0.3868295348 -0.9135454576
-0.1846545719 0.3624050026 -0.9135454576
-0.2390738004 0.3290568565 -0.9135454576
-0.2876062385 0.2876062385 -0.9135454576
-0.3290568565 0.2390738004 -0.9135454576
-0.3624050026 0.1846545719 -0.9135454576
-0.3868295348 0.1256885349 -0.9135454576
-0.4017290401 0.06362762917 -0.9135454576
-0.4067366431 4.98108728e-17 -0.9135454576
-0.4017290401 -0.06362762917 -0.9135454576
-0.3868295348 -0.1256885349 -0.9135454576
-0.3624050026 -0.1846545719 -0.9135454576
-0.3290568565 -0.2390738004 -0.9135454576
-0.2876062385 -0.2876062385 -0.9135454576
-0.2390738004 -0.3290568565 -0.9135454576
-0.1846545719 -0.3624050026 -0.9135454576
-0.1256885349 -0.3868295348 -0.9135454576
-0.06362762917 -0.4017290401 -0.9135454576
-7.471630921e-17 -0.4067366431 -0.9135454576
0.06362762917 -0.4017290401 -0.9135454576
0.1256885349 -0.3868295348 -0.9135454576
0.1846545719 -0.3624050026 -0.9135454576
0.2390738004 -0.3290568565 -0.9135454576
0.2876062385 -0.2876062385 -0.9135454576
0.3290568565 -0.2390738004 -0.9135454576
0.3624050026 -0.1846545719 -0.9135454576
0.3868295348 -0.1256885349 -0.9135454576
0.4017290401 -0.06362762917 -0.9135454576
0.5 0 -0.8660254038
0.4938441703 0.07821723252 -0.8660254038
0.4755282581 0.1545084972 -0.8660254038
0.4455032621 0.2269952499 -0.8660254038
0.4045084972 0.2938926261 -0.8660254038
0.3535533906 0.3535533906 -0.8660254038
0.2938926261 0.4045084972 -0.8660254038
0.2269952499 0.4455032621 -0.8660254038
0.1545084972 0.4755282581 -0.8660254038
0.07821723252 0.4938441703 -0.8660254038
3.061616998e-17 0.5 -0.8660254038
-0.07821723252 0.4938441703 -0.8660254038
-0.1545084972 0.4755282581 -0.8660254038
-0.2269952499 0.4455032621 -0.8660254038
-0.2938926261 0.4045084972 -0.8660254038
-0.3535533906 0.3535533906 -0.8660254038
-0.4045084972 0.2938926261 -0.8660254038
-0.4455032621 0.2269952499 -0.8660254038
-0.4755282581 0.1545084972 -0.8660254038
-0.4938441703 0.07821723252 -0.8660254038
-0.5 6.123233996e-17 -0.8660254038
-0.4938441703 -0.07821723252 -0.8660254038
-0.4755282581 -0.1545084972 -0.8660254038
-0.4455032621 -0.2269952499 -0.8660254038
-0.4045084972 -0.2938926261 -0.8660254038
-0.3535533906 -0.3535533906 -0.8660254038
-0.2938926261 -0.4045084972 -0.8660254038
-0.2269952499 -0.4455032621 -0.8660254038
-0.1545084972 -0.4755282581 -0.8660254038
-0.07821723252 -0.4938441703 -0.8660254038
-9.184850994e-17 -0.5 -0.8660254038
0.07821723252 -0.4938441703 -0.8660254038
0.1545084972 -0.4755282581 -0.8660254038
0.2269952499 -0.4455032621 -0.8660254038
0.2938926261 -0.4045084972 -0.8660254038
0.3535533906 -0.3535533906 -0.8660254038
0.4045084972 -0.2938926261 -0.8660254038
0.4455032621 -0.2269952499 -0.8660254038
0.4755282581 -0.1545084972 -0.8660254038
0.4938441703 -0.07821723252 -0.8660254038
0.5877852523 0 -0.8090169944
0.5805486405 0.0919498715 -0.8090169944
0.5590169944 0.181635632 -0.8090169944
0.5237204946 0.2668489204 -0.8090169944
0.4755282581 0.3454915028 -0.8090169944
0.4156269378 0.4156269378 -0.8090169944
0.3454915028 0.4755282581 -0.8090169944
0.2668489204 0.5237204946 -0.8090169944
0.181635632 0.5590169944 -0.8090169944
0.0919498715 0.5805486405 -0.8090169944
3.599146639e-17 0.5877852523 -0.8090169944
-0.0919498715 0.5805486405 -0.8090169944
-0.181635632 0.5590169944 -0.8090169944
-0.2668489204 0.5237204946 -0.8090169944
-0.3454915028 0.4755282581 -0.8090169944
-0.4156269378 0.4156269378 -0.8090169944
-0.4755282581 0.3454915028 -0.8090169944
-0.5237204946 0.2668489204 -0.8090169944
-0.5590169944 0.181635632 -0.8090169944
-0.5805486405 0.0919498715 -0.8090169944
-0.5877852523 7.198293278e-17 -0.8090169944
-0.5805486405 -0.0919498715 -0.8090169944
-0.5590169944 -0.181635632 -0.8090169944
-0.5237204946 -0.2668489204 -0.8090169944
-0.4755282581 -0.3454915028 -0.8090169944
-0.4156269378 -0.4156269378 -0.8090169944
-0.3454915028 -0.4755282581 -0.8090169944
-0.2668489204 -0.5237204946 -0.8090169944
-0.181635632 -0.5590169944 -0.8090169944
-0.0919498715 -0.5805486405 -0.8090169944
-1.079743992e-16 -0.5877852523 -0.8090169944
0.0919498715 -0.5805486405 -0.8090169944
0.181635632 -0.5590169944 -0.8090169944
0.2668489204 -0.5237204946 -0.8090169944
0.3454915028 -0.4755282581 -0.8090169944
0.4156269378 -0.4156269378 -0.8090169944
0.4755282581 -0.3454915028 -0.8090169944
0.5237204946 -0.2668489204 -0.8090169944
0.5590169944 -0.181635632 -0.8090169944
0.5805486405 -0.0919498715 -0.8090169944
0.6691306064 0 -0.7431448255
0.6608924982 0.1046750884 -0.7431448255
[...]
CELL_DATA 4864
SCALARS RedParent int 1
LOOKUP_TABLE default
1237 
1237 
1237 
1237 
1237 
1237 
1237 
1237 
1237 
1237 
1237 
1237 
1237 
1237 
1237 
1237 
1237 
1237 
1237 
1237 
1237 
1237 
1237 
1237 
1237 
1237 
1237 
1237 
1237 
1237 
1237 
1237 
1237 
1237 
1237 
1237 
1237 
1237 
1237 
1237 
1252 
1252 
1252 
1252 
1236 
1236 
1236 
1236 
1222 
1222 
1222 
1222 
1238 
1238 
1238 
1238 
1267 
1267 
1251 
1251 
1251 
1251 
1251 
1251 
1253 
1253 
1253 
1253 
1253 
1253 
1235 
1235 
1221 
1221 
1221 
1221 
1221 
1221 
1207 
1207 
1223 
1223 
1223 
1223 
1223 
1223 
1239 
1239 
1282 
1282 
1266 
1266 
1268 
1268 
1250 
1250 
1254 
1254 
1234 
1234 
1220 
1220 
1206 
1206 
1192 
1192 
1208 
1208 
1224 
1224 
1240 
1240 
1281 
1281 
1283 
1283 
1265 
1265 
1269 
1269 
1249 
1249 
1255 
1255 
1219 
1219 
1205 
1205 
1191 
1191 
1193 
1193 
1209 
1209 
1225 
1225 
1296 
1298 
1280 
1280 
1280 
1284 
1284 
1284 
1264 
1264 
1264 
1270 
1270 
1270 
1248 
1256 
1218 
1204 
1204 
1204 
1190 
1190 
1190 
1176 
1178 
1194 
1194 
1194 
1210 
1210 
1210 
1226 
1295 
1295 
1299 
1299 
1279 
1279 
1279 
1279 
1285 
1285 
1285 
1285 
1263 
1263 
1271 
1271 
1203 
1203 
1189 
1189 
1189 
1189 
1175 
1175 
1179 
1179 
1195 
1195 
1195 
1195 
1211 
1211 
1310 
1314 
1294 
1300 
1278 
1286 
1262 
1272 
1202 
1188 
1174 
1160 
1164 
1180 
1196 
1212 
1341 
1343 
1309 
1309 
1309 
1315 
1315 
1315 
1293 
1293 
1301 
1301 
1277 
1277 
1277 
1287 
1287 
1287 
1245 
1259 
1215 
1187 
1187 
1187 
1173 
1173 
1159 
1159 
1159 
1131 
1133 
1165 
1165 
1165 
1181 
1181 
1197 
1197 
1197 
1229 
1340 
1344 
1324 
1324 
1330 
1330 
1308 
1316 
1292 
1302 
1276 
1276 
1288 
1288 
1260 
1274 
1200 
1186 
1186 
1172 
1158 
1144 
1144 
1130 
1134 
1150 
1150 
1166 
1182 
1198 
1198 
1214 
1339 
1345 
1323 
1323 
1331 
1331 
1307 
1307 
1307 
1307 
1317 
1317 
1317 
1317 
1291 
1291 
1303 
1303 
1275 
1289 
1185 
1171 
1171 
1157 
1157 
1157 
1157 
1143 
1143 
1129 
1135 
1151 
1151 
1167 
1167 
1167 
1167 
1183 
1183 
1199 
1338 
1338 
1338 
1346 
1346 
1346 
1322 
1332 
1306 
1318 
1290 
1290 
1290 
1304 
1304 
1304 
1170 
1170 
1170 
1156 
1142 
1128 
1128 
1128 
1136 
1136 
1136 
1152 
1168 
1184 
1184 
1184 
3 
3 
11 
11 
1337 
1347 
1321 
1321 
1333 
1333 
1305 
1319 
686 
686 
228 
228 
678 
678 
1155 
1141 
1141 
1127 
461 
461 
453 
453 
1137 
1153 
1153 
1169 
236 
236 
18 
26 
1336 
1348 
1320 
1334 
701 
243 
693 
1140 
1126 
476 
468 
1138 
1154 
251 
27 
17 
1335 
1335 
1349 
1349 
702 
242 
692 
1125 
1125 
477 
467 
1139 
1139 
252 
32 
32 
42 
42 
0 
0 
14 
14 
689 
689 
225 
225 
717 
717 
257 
257 
707 
707 
675 
675 
464 
464 
492 
492 
482 
482 
450 
450 
239 
239 
267 
267 
47 
47 
57 
57 
29 
15 
704 
240 
732 
732 
272 
272 
722 
722 
690 
479 
507 
507 
497 
497 
465 
254 
282 
282 
62 
72 
747 
287 
737 
522 
512 
297 
61 
73 
748 
286 
736 
523 
511 
298 
76 
88 
763 
301 
751 
538 
526 
313 
152 
162 
136 
148 
823 
361 
837 
377 
827 
811 
598 
612 
602 
586 
373 
387 
906 
908 
167 
167 
177 
177 
151 
163 
838 
376 
852 
852 
392 
392 
990 
1004 
1020 
842 
842 
826 
613 
627 
627 
1116 
1118 
617 
617 
601 
388 
402 
402 
1034 
905 
909 
198 
206 
182 
182 
192 
192 
867 
867 
407 
407 
881 
423 
975 
989 
1035 
873 
857 
857 
642 
642 
656 
1115 
1119 
648 
632 
632 
417 
417 
431 
1049 
904 
910 
213 
213 
221 
221 
207 
197 
882 
422 
896 
896 
438 
438 
960 
974 
1050 
888 
888 
872 
657 
671 
671 
1114 
1120 
663 
663 
647 
432 
446 
446 
1064 
967 
967 
951 
953 
935 
939 
919 
919 
925 
925 
903 
903 
903 
911 
911 
911 
945 
945 
945 
959 
959 
959 
961 
961 
973 
973 
977 
987 
993 
1001 
1065 
1065 
1065 
1051 
1051 
1037 
1023 
1009 
1009 
1113 
1113 
1113 
1099 
1099 
1085 
1071 
1057 
1057 
1073 
1089 
1105 
1105 
1121 
1121 
1121 
1079 
1079 
1079 
1063 
1063 
1047 
1031 
1015 
1015 
982 
982 
966 
966 
968 
968 
950 
950 
954 
954 
934 
934 
934 
940 
940 
940 
918 
918 
926 
926 
902 
912 
209 
195 
884 
420 
930 
944 
946 
946 
958 
958 
962 
962 
962 
972 
972 
972 
978 
978 
986 
986 
994 
994 
1000 
1000 
1080 
1066 
1066 
1052 
1052 
1052 
1038 
1038 
1024 
1024 
1010 
1010 
870 
659 
1112 
1098 
1098 
1084 
1084 
1084 
1070 
1070 
1056 
1056 
1042 
1042 
1058 
1058 
1074 
1074 
1090 
1090 
1090 
1106 
1106 
1122 
645 
434 
1094 
1078 
1078 
1062 
1062 
1062 
1046 
1046 
1030 
1030 
1014 
1014 
997 
997 
997 
997 
981 
981 
983 
983 
965 
965 
965 
969 
969 
969 
949 
955 
933 
941 
917 
927 
901 
913 
210 
210 
224 
224 
899 
899 
435 
435 
915 
929 
931 
943 
947 
957 
963 
971 
979 
979 
979 
985 
985 
985 
995 
995 
999 
999 
1095 
1081 
1067 
1053 
1039 
1039 
1039 
1025 
1025 
1011 
1011 
1011 
1011 
885 
885 
674 
674 
1111 
1097 
1083 
1069 
1055 
1055 
1055 
1041 
1041 
1027 
1027 
1027 
1027 
1043 
1043 
1059 
1059 
1059 
1075 
1091 
1107 
1123 
660 
660 
449 
449 
1109 
1093 
1077 
1061 
1045 
1045 
1045 
1029 
1029 
1013 
1013 
1013 
1013 
1012 
1012 
1012 
1012 
1012 
1012 
1012 
1012 
1012 
1012 
1012 
1012 
1012 
1012 
1012 
1012 
1012 
1012 
1012 
1012 
1012 
1012 
1012 
1012 
1012 
1012 
1012 
1012 
1012 
1012 
1012 
1012 
1012 
1012 
1012 
1012 
1012 
1012 
1012 
1012 
996 
996 
996 
996 
996 
996 
998 
998 
998 
998 
998 
998 
980 
980 
984 
984 
964 
964 
964 
964 
970 
970 
970 
970 
948 
948 
956 
956 
932 
932 
932 
932 
942 
942 
942 
942 
916 
916 
928 
928 
900 
900 
914 
914 
1110 
1110 
1096 
1096 
1082 
1082 
1082 
1082 
1068 
1068 
1054 
1054 
1054 
1054 
1040 
1040 
1026 
1026 
1026 
1026 
1026 
1026 
1028 
1028 
1028 
1028 
1028 
1028 
1044 
1044 
1060 
1060 
1060 
1060 
1076 
1076 
1092 
1092 
1092 
1092 
1108 
1108 
1124 
1124 
1252 
1252 
1252 
1252 
1252 
1252 
1252 
1252 
1252 
1252 
1236 
1236 
1236 
1236 
1236 
1236 
1236 
1236 
1236 
1236 
1222 
1222 
1222 
1222 
1222 
1222 
1222 
1222 
1222 
1222 
1238 
1238 
1238 
1238 
1238 
1238 
1238 
1238 
1238 
1238 
1267 
1267 
1267 
1267 
1267 
1267 
1251 
1251 
1253 
1253 
1235 
1235 
1235 
1235 
1235 
1235 
1221 
1221 
1207 
1207 
1207 
1207 
1207 
1207 
1223 
1223 
1239 
1239 
1239 
1239 
1239 
1239 
1282 
1282 
1282 
1282 
1266 
1266 
1266 
1266 
1268 
1268 
1268 
1268 
1250 
1250 
1250 
1250 
1254 
1254 
1254 
1254 
1234 
1234 
1234 
1234 
1220 
1220 
1220 
1220 
1206 
1206 
1206 
1206 
1192 
1192 
1192 
1192 
1208 
1208 
1208 
1208 
1224 
1224 
1224 
1224 
1240 
1240 
1240 
1240 
1297 
1297 
1297 
1297 
1281 
1281 
1281 
1283 
1283 
1283 
1265 
1265 
1265 
1265 
1265 
1265 
1269 
1269 
1269 
1269 
1269 
1269 
1249 
1249 
1249 
1255 
1255 
1255 
1233 
1233 
1233 
1233 
1219 
1219 
1219 
1205 
1205 
1205 
1205 
1205 
1205 
1191 
1191 
1191 
1177 
1177 
1177 
1177 
1193 
1193 
1193 
1209 
1209 
1209 
1209 
1209 
1209 
1225 
1225 
1225 
1241 
1241 
1241 
1241 
1312 
1312 
1312 
1312 
1296 
1296 
1296 
1296 
1298 
1298 
1298 
1298 
1280 
1280 
1284 
1284 
1264 
1264 
1270 
1270 
1248 
1248 
1248 
1248 
1256 
1256 
1256 
1256 
1232 
1232 
1232 
1232 
1218 
1218 
1218 
1218 
1204 
1204 
1190 
1190 
1176 
1176 
1176 
1176 
1162 
1162 
1162 
1162 
1178 
1178 
1178 
1178 
1194 
1194 
1210 
1210 
1226 
1226 
1226 
1226 
1242 
1242 
1242 
1242 
1327 
1327 
1327 
1327 
1311 
1311 
1311 
1311 
1313 
1313 
1313 
1313 
1295 
1299 
1263 
1271 
1247 
1247 
1247 
1247 
1257 
1257 
1257 
1257 
1231 
1231 
1231 
1231 
1217 
1217 
1217 
1217 
1203 
1175 
1161 
1161 
1161 
1161 
1147 
1147 
1147 
1147 
1163 
1163 
1163 
1163 
1179 
1211 
1227 
1227 
1227 
1227 
1243 
1243 
1243 
1243 
1342 
1342 
1342 
1342 
1326 
1326 
1326 
1326 
1328 
1328 
1328 
1328 
1310 
1310 
1310 
1310 
1314 
1314 
1314 
1314 
1294 
1294 
1300 
1300 
1278 
1278 
1286 
1286 
1262 
1262 
1262 
1262 
1272 
1272 
1272 
1272 
1246 
1246 
1246 
1246 
1258 
1258 
1258 
1258 
1230 
1230 
1230 
1230 
1216 
1216 
1216 
1216 
1202 
1202 
1202 
1202 
1188 
1188 
1174 
1174 
1160 
1160 
1160 
1160 
1146 
1146 
1146 
1146 
1132 
1132 
1132 
1132 
1148 
1148 
1148 
1148 
1164 
1164 
1164 
1164 
1180 
1180 
1196 
1196 
1212 
1212 
1212 
1212 
1228 
1228 
1228 
1228 
1244 
1244 
1244 
1244 
7 
7 
7 
7 
1341 
1341 
1341 
1343 
1343 
1343 
1325 
1325 
1325 
1325 
1329 
1329 
1329 
1329 
1309 
1309 
1315 
1315 
1293 
1293 
1301 
1301 
1277 
1277 
1287 
1287 
1261 
1261 
1261 
1261 
1273 
1273 
1273 
1273 
1245 
1245 
1245 
1259 
1259 
1259 
682 
682 
682 
682 
1215 
1215 
1215 
1201 
1201 
1201 
1201 
1187 
1187 
1173 
1173 
1159 
1159 
1145 
1145 
1145 
1145 
1131 
1131 
1131 
457 
457 
457 
457 
1133 
1133 
1133 
1149 
1149 
1149 
1149 
1165 
1165 
1181 
1181 
1197 
1197 
1213 
1213 
1213 
1213 
1229 
1229 
1229 
232 
232 
232 
232 
22 
22 
22 
22 
6 
6 
8 
8 
1340 
1344 
1308 
1308 
1316 
1316 
1292 
1292 
1302 
1302 
1260 
1274 
683 
683 
231 
231 
697 
697 
697 
697 
681 
681 
1200 
1172 
1172 
1158 
1158 
1130 
458 
458 
472 
472 
472 
472 
456 
456 
1134 
1166 
1166 
1182 
1182 
1214 
233 
233 
247 
247 
247 
247 
37 
37 
37 
37 
21 
21 
23 
23 
5 
5 
9 
9 
1339 
1339 
1345 
1345 
1323 
1323 
1331 
1331 
1291 
1291 
1303 
1303 
1275 
1275 
1289 
1289 
684 
684 
230 
230 
698 
698 
246 
246 
712 
712 
712 
712 
696 
696 
680 
680 
1185 
1185 
1171 
1171 
1143 
1143 
1129 
1129 
459 
459 
473 
473 
487 
487 
487 
487 
471 
471 
455 
455 
1135 
1135 
1151 
1151 
1183 
1183 
1199 
1199 
234 
234 
248 
248 
262 
262 
262 
262 
52 
52 
52 
52 
36 
36 
38 
38 
20 
20 
24 
24 
4 
4 
4 
4 
10 
10 
10 
10 
1338 
1346 
1322 
1322 
1332 
1332 
1306 
1306 
1318 
1318 
1290 
1304 
685 
685 
685 
685 
229 
229 
229 
229 
699 
699 
245 
245 
713 
713 
261 
261 
727 
727 
727 
727 
711 
711 
695 
695 
679 
679 
679 
679 
1170 
1156 
1156 
1142 
1142 
1128 
460 
460 
460 
460 
474 
474 
488 
488 
502 
502 
502 
502 
486 
486 
470 
470 
454 
454 
454 
454 
1136 
1152 
1152 
1168 
1168 
1184 
235 
235 
235 
235 
249 
249 
263 
263 
277 
277 
277 
277 
67 
67 
67 
67 
51 
51 
53 
53 
35 
35 
39 
39 
19 
19 
19 
19 
25 
25 
25 
25 
1337 
1347 
1321 
1321 
1333 
1333 
1305 
1319 
700 
700 
700 
700 
244 
244 
244 
244 
714 
714 
260 
260 
728 
728 
276 
276 
742 
742 
742 
742 
726 
726 
710 
710 
694 
694 
694 
694 
1155 
1141 
1141 
1127 
475 
475 
475 
475 
489 
489 
503 
503 
517 
517 
517 
517 
501 
501 
485 
485 
469 
469 
469 
469 
1137 
1153 
1153 
1169 
250 
250 
250 
250 
264 
264 
278 
278 
292 
292 
292 
292 
82 
82 
82 
82 
66 
66 
68 
68 
50 
50 
54 
54 
34 
34 
34 
34 
40 
40 
40 
40 
2 
2 
12 
12 
1336 
1336 
1348 
1348 
1320 
1320 
1334 
1334 
687 
687 
227 
227 
715 
715 
715 
715 
259 
259 
259 
259 
729 
729 
275 
275 
743 
743 
291 
291 
757 
757 
757 
757 
741 
741 
725 
725 
709 
709 
709 
709 
677 
677 
1140 
1140 
1126 
1126 
462 
462 
490 
490 
490 
490 
504 
504 
518 
518 
532 
532 
532 
532 
516 
516 
500 
500 
484 
484 
484 
484 
452 
452 
1138 
1138 
1154 
1154 
237 
237 
265 
265 
265 
265 
279 
279 
293 
293 
307 
307 
307 
307 
97 
97 
97 
97 
81 
81 
83 
83 
65 
65 
69 
69 
49 
49 
49 
49 
55 
55 
55 
55 
33 
33 
41 
41 
1 
1 
1 
1 
13 
13 
13 
13 
1335 
1335 
1349 
1349 
688 
688 
688 
688 
226 
226 
226 
226 
716 
716 
258 
258 
730 
730 
730 
730 
274 
274 
274 
274 
744 
744 
290 
290 
758 
758 
306 
306 
772 
772 
772 
772 
756 
756 
740 
740 
724 
724 
724 
724 
708 
708 
676 
676 
676 
676 
1125 
1125 
463 
463 
463 
463 
491 
491 
505 
505 
505 
505 
519 
519 
533 
533 
547 
547 
547 
547 
531 
531 
515 
515 
499 
499 
499 
499 
483 
483 
451 
451 
451 
451 
1139 
1139 
238 
238 
238 
238 
266 
266 
280 
280 
280 
280 
294 
294 
308 
308 
322 
322 
322 
322 
112 
112 
112 
112 
96 
96 
98 
98 
80 
80 
84 
84 
64 
64 
64 
64 
70 
70 
70 
70 
48 
48 
56 
56 
28 
28 
28 
28 
16 
16 
16 
16 
703 
703 
703 
703 
241 
241 
241 
241 
731 
731 
273 
273 
745 
745 
745 
745 
289 
289 
289 
289 
759 
759 
305 
305 
773 
773 
321 
321 
787 
787 
787 
787 
771 
771 
755 
755 
739 
739 
739 
739 
723 
723 
691 
691 
691 
691 
478 
478 
478 
478 
506 
506 
520 
520 
520 
520 
534 
534 
548 
548 
562 
562 
562 
562 
546 
546 
530 
530 
514 
514 
514 
514 
498 
498 
466 
466 
466 
466 
253 
253 
253 
253 
281 
281 
295 
295 
295 
295 
309 
309 
323 
323 
337 
337 
337 
337 
127 
127 
127 
127 
111 
111 
113 
113 
95 
95 
99 
99 
79 
79 
79 
79 
85 
85 
85 
85 
63 
63 
71 
71 
31 
31 
31 
31 
43 
43 
43 
43 
718 
718 
718 
718 
256 
256 
256 
256 
746 
746 
288 
288 
760 
760 
760 
760 
304 
304 
304 
304 
774 
774 
320 
320 
788 
788 
336 
336 
802 
802 
802 
802 
786 
786 
770 
770 
754 
754 
754 
754 
738 
738 
706 
706 
706 
706 
493 
493 
493 
493 
521 
521 
535 
535 
535 
535 
549 
549 
563 
563 
577 
577 
577 
577 
561 
561 
545 
545 
529 
529 
529 
529 
513 
513 
481 
481 
481 
481 
268 
268 
268 
268 
296 
296 
310 
310 
310 
310 
324 
324 
338 
338 
352 
352 
352 
352 
142 
142 
142 
142 
126 
126 
128 
128 
110 
110 
114 
114 
94 
94 
94 
94 
100 
100 
100 
100 
78 
78 
86 
86 
46 
46 
46 
46 
58 
58 
58 
58 
30 
30 
44 
44 
719 
719 
255 
255 
733 
733 
733 
733 
271 
271 
271 
271 
761 
761 
303 
303 
775 
775 
775 
775 
319 
319 
319 
319 
789 
789 
335 
335 
803 
803 
351 
351 
817 
817 
817 
817 
801 
801 
785 
785 
769 
769 
769 
769 
753 
753 
721 
721 
721 
721 
705 
705 
494 
494 
508 
508 
508 
508 
536 
536 
550 
550 
550 
550 
564 
564 
578 
578 
592 
592 
592 
592 
576 
576 
560 
560 
544 
544 
544 
544 
528 
528 
496 
496 
496 
496 
480 
480 
269 
269 
283 
283 
283 
283 
311 
311 
325 
325 
325 
325 
339 
339 
353 
353 
367 
367 
367 
367 
157 
157 
157 
157 
141 
141 
143 
143 
125 
125 
129 
129 
109 
109 
109 
109 
115 
115 
115 
115 
93 
93 
101 
101 
77 
77 
87 
87 
61 
73 
45 
45 
59 
59 
734 
734 
270 
270 
748 
286 
762 
762 
302 
302 
776 
776 
318 
318 
790 
790 
790 
790 
334 
334 
334 
334 
804 
804 
350 
350 
818 
818 
366 
366 
832 
832 
832 
832 
816 
816 
800 
800 
784 
784 
784 
784 
768 
768 
752 
752 
736 
720 
720 
509 
509 
523 
537 
537 
551 
551 
565 
565 
565 
565 
579 
579 
593 
593 
607 
607 
607 
607 
591 
591 
575 
575 
559 
559 
559 
559 
543 
543 
527 
527 
511 
495 
495 
284 
284 
298 
312 
312 
326 
326 
340 
340 
340 
340 
354 
354 
368 
368 
382 
382 
382 
382 
172 
172 
172 
172 
156 
156 
158 
158 
140 
140 
144 
144 
124 
124 
124 
124 
130 
130 
130 
130 
108 
108 
116 
116 
92 
92 
102 
102 
76 
76 
88 
88 
60 
60 
74 
74 
749 
749 
285 
285 
763 
763 
301 
301 
777 
777 
317 
317 
791 
791 
333 
333 
805 
805 
805 
805 
349 
349 
349 
349 
819 
819 
365 
365 
833 
833 
381 
381 
847 
847 
847 
847 
831 
831 
815 
815 
799 
799 
799 
799 
783 
783 
767 
767 
751 
751 
735 
735 
524 
524 
538 
538 
552 
552 
566 
566 
580 
580 
580 
580 
594 
594 
608 
608 
622 
622 
622 
622 
606 
606 
590 
590 
574 
574 
574 
574 
558 
558 
542 
542 
526 
526 
510 
510 
299 
299 
313 
313 
327 
327 
341 
341 
355 
355 
355 
355 
369 
369 
383 
383 
397 
397 
397 
397 
187 
187 
187 
187 
171 
171 
173 
173 
155 
155 
159 
159 
139 
139 
139 
139 
145 
145 
145 
145 
123 
123 
131 
131 
107 
107 
117 
117 
91 
91 
91 
91 
103 
103 
103 
103 
75 
89 
764 
300 
778 
778 
778 
778 
316 
316 
316 
316 
792 
792 
332 
332 
806 
806 
348 
348 
820 
820 
820 
820 
364 
364 
364 
364 
834 
834 
380 
380 
848 
848 
396 
396 
862 
862 
862 
862 
846 
846 
830 
830 
814 
814 
814 
814 
798 
798 
782 
782 
766 
766 
766 
766 
750 
539 
553 
553 
553 
553 
567 
567 
581 
581 
595 
595 
595 
595 
609 
609 
623 
623 
637 
637 
637 
637 
621 
621 
605 
605 
589 
589 
589 
589 
573 
573 
557 
557 
541 
541 
541 
541 
525 
314 
328 
328 
328 
328 
342 
342 
356 
356 
370 
370 
370 
370 
384 
384 
398 
398 
412 
412 
412 
412 
202 
202 
202 
202 
186 
186 
188 
188 
170 
170 
174 
174 
154 
154 
154 
154 
160 
160 
160 
160 
138 
138 
146 
146 
122 
122 
132 
132 
106 
106 
106 
106 
118 
118 
118 
118 
90 
90 
104 
104 
779 
779 
315 
315 
793 
793 
793 
793 
331 
331 
331 
331 
807 
807 
347 
347 
821 
821 
363 
363 
835 
835 
835 
835 
379 
379 
379 
379 
849 
849 
395 
395 
863 
863 
411 
411 
877 
877 
877 
877 
861 
861 
845 
845 
829 
829 
829 
829 
813 
813 
797 
797 
781 
781 
781 
781 
765 
765 
554 
554 
568 
568 
568 
568 
582 
582 
596 
596 
610 
610 
610 
610 
624 
624 
638 
638 
652 
652 
652 
652 
636 
636 
620 
620 
604 
604 
604 
604 
588 
588 
572 
572 
556 
556 
556 
556 
540 
540 
329 
329 
343 
343 
343 
343 
357 
357 
371 
371 
385 
385 
385 
385 
399 
399 
413 
413 
427 
427 
427 
427 
217 
217 
217 
217 
201 
201 
203 
203 
185 
185 
189 
189 
169 
169 
169 
169 
175 
175 
175 
175 
153 
153 
161 
161 
137 
137 
147 
147 
121 
121 
121 
121 
133 
133 
133 
133 
105 
105 
119 
119 
794 
794 
330 
330 
808 
808 
808 
808 
346 
346 
346 
346 
822 
822 
362 
362 
836 
836 
378 
378 
850 
850 
850 
850 
394 
394 
394 
394 
864 
864 
410 
410 
878 
878 
426 
426 
892 
892 
892 
892 
876 
876 
860 
860 
844 
844 
844 
844 
828 
828 
812 
812 
796 
796 
796 
796 
780 
780 
569 
569 
583 
583 
583 
583 
597 
597 
611 
611 
625 
625 
625 
625 
639 
639 
653 
653 
667 
667 
667 
667 
651 
651 
635 
635 
619 
619 
619 
619 
603 
603 
587 
587 
571 
571 
571 
571 
555 
555 
344 
344 
358 
358 
358 
358 
372 
372 
386 
386 
400 
400 
400 
400 
414 
414 
428 
428 
442 
442 
442 
442 
907 
907 
907 
907 
216 
216 
218 
218 
200 
200 
204 
204 
184 
184 
184 
184 
190 
190 
190 
190 
168 
168 
176 
176 
136 
136 
148 
148 
120 
120 
134 
134 
809 
809 
345 
345 
823 
823 
361 
361 
851 
851 
393 
393 
865 
865 
865 
865 
409 
409 
409 
409 
879 
879 
425 
425 
893 
893 
441 
441 
1005 
1005 
1005 
1005 
891 
891 
875 
875 
859 
859 
859 
859 
843 
843 
811 
811 
795 
795 
584 
584 
598 
598 
626 
626 
640 
640 
640 
640 
654 
654 
668 
668 
1117 
1117 
1117 
1117 
666 
666 
650 
650 
634 
634 
634 
634 
618 
618 
586 
586 
570 
570 
359 
359 
373 
373 
401 
401 
415 
415 
415 
415 
429 
429 
443 
443 
1019 
1019 
1019 
1019 
922 
922 
922 
922 
906 
906 
906 
908 
908 
908 
215 
215 
219 
219 
199 
199 
199 
199 
205 
205 
205 
205 
183 
183 
191 
191 
151 
163 
135 
149 
824 
360 
838 
376 
866 
866 
408 
408 
880 
880 
880 
880 
424 
424 
424 
424 
894 
894 
440 
440 
990 
990 
990 
1004 
1004 
1004 
1020 
1020 
1020 
1006 
1006 
1006 
1006 
890 
890 
874 
874 
874 
874 
858 
858 
826 
810 
599 
613 
641 
641 
655 
655 
655 
655 
669 
669 
1116 
1116 
1116 
1102 
1102 
1102 
1102 
1118 
1118 
1118 
665 
665 
649 
649 
649 
649 
633 
633 
601 
585 
374 
388 
416 
416 
430 
430 
430 
430 
444 
444 
1034 
1034 
1034 
1018 
1018 
1018 
1018 
937 
937 
937 
937 
921 
921 
921 
921 
923 
923 
923 
923 
905 
909 
214 
214 
214 
214 
220 
220 
220 
220 
166 
166 
166 
166 
178 
178 
178 
178 
150 
150 
164 
164 
839 
839 
375 
375 
853 
853 
853 
853 
391 
391 
391 
391 
895 
895 
895 
895 
439 
439 
439 
439 
975 
989 
991 
991 
991 
991 
1003 
1003 
1003 
1003 
1035 
1021 
1021 
1021 
1021 
1007 
1007 
1007 
1007 
889 
889 
889 
889 
841 
841 
841 
841 
825 
825 
614 
614 
628 
628 
628 
628 
670 
670 
670 
670 
1115 
1101 
1101 
1101 
1101 
1087 
1087 
1087 
1087 
1103 
1103 
1103 
1103 
1119 
664 
664 
664 
664 
616 
616 
616 
616 
600 
600 
389 
389 
403 
403 
403 
403 
445 
445 
445 
445 
1049 
1033 
1033 
1033 
1033 
1017 
1017 
1017 
1017 
952 
952 
952 
952 
936 
936 
936 
936 
938 
938 
938 
938 
920 
920 
920 
920 
924 
924 
924 
924 
904 
904 
910 
910 
181 
181 
181 
181 
193 
193 
193 
193 
165 
165 
179 
179 
854 
854 
390 
390 
868 
868 
868 
868 
406 
406 
406 
406 
960 
960 
974 
974 
976 
976 
976 
976 
988 
988 
988 
988 
992 
992 
992 
992 
1002 
1002 
1002 
1002 
1050 
1050 
1036 
1036 
1036 
1036 
1022 
1022 
1022 
1022 
1008 
1008 
1008 
1008 
856 
856 
856 
856 
840 
840 
629 
629 
643 
643 
643 
643 
1114 
1114 
1100 
1100 
1100 
1100 
1086 
1086 
1086 
1086 
1072 
1072 
1072 
1072 
1088 
1088 
1088 
1088 
1104 
1104 
1104 
1104 
1120 
1120 
631 
631 
631 
631 
615 
615 
404 
404 
418 
418 
418 
418 
1064 
1064 
1048 
1048 
1048 
1048 
1032 
1032 
1032 
1032 
1016 
1016 
1016 
1016 
967 
967 
967 
967 
951 