# vtk DataFile Version 3.0
MOAB 4.6.0pre
ASCII
DATASET UNSTRUCTURED_GRID
POINTS 56 double
3.06000494 -2.8933856 3.043795251
2.843174952 3.09906072 -3.051586284
2.863569261 3.088560418 3.04315061
-3.104738261 -2.938118921 2.95432861
-3.093925552 -2.95824043 -2.94557944
-2.908293108 3.133284264 2.953702916
-2.896820584 3.152706352 -2.94429502
3.040256518 -2.904571396 -3.052917508
-3.705532896 -3.522214129 -0.9289960101
-3.707456939 -3.512135933 0.9589912554
-3.710138998 -0.8157055238 3.545348095
-3.611414547 1.180713297 3.544517044
-3.509390674 3.717700907 -0.9289117646
-3.511623325 3.707943374 0.9589877787
-3.708427515 -0.8272369599 -3.544466727
-3.609111103 1.192072809 -3.543060748
3.695357465 -3.512038697 -1.004946467
3.705322762 -3.510001756 0.9749209712
3.590315072 -0.7955888261 -3.671059262
3.491045511 1.160437229 -3.669603068
3.499216164 3.707526398 -1.004855334
3.509489155 3.705809205 0.9749174367
3.594118837 -0.7846180155 3.669698128
3.495421583 1.149633076 3.668837929
-0.9931076884 -3.619988517 -3.592968168
0.9846224828 -3.588321298 -3.626908991
-1.004225699 -3.616664357 3.593225525
0.9958903463 -3.585556399 3.626566934
-0.8950691377 3.645844148 -3.592585655
0.8865848354 3.6141803 -3.626522864
-0.9062265853 3.642678697 3.592999483
0.8978917573 3.611572696 3.626338795
-4.917916839 -1.128604168 -1.241107004
-4.910000586 -1.120652868 1.279074431
-4.819608371 1.493754966 -1.240996071
-4.812069809 1.485929798 1.2790609
-1.187611011 1.486242191 4.835355648
-1.38436181 -1.29148832 4.838966863
1.115387865 1.414019045 4.874059915
1.312084725 -1.219211236 4.877700036
-1.357327757 -1.286203054 -4.848024656
-1.160400135 1.480741387 -4.843642893
1.317556431 -1.246431729 -4.869338045
1.120664756 1.441006008 -4.864937018
4.89899051 -1.117702727 1.323114734
4.887937875 -1.120571329 -1.361022861
4.80105985 1.482979689 1.323100737
4.789632087 1.485722845 -1.360901209
-1.350537285 -4.847312592 1.29599756
-1.345787015 -4.851339219 -1.28583245
1.349746306 -4.844360622 1.307805442
1.343633227 -4.843301172 -1.317984641
-1.247815983 4.877465478 -1.285801611
-1.252593156 4.873541858 1.295993882
1.245662247 4.869427623 -1.317953031
1.25180218 4.870589896 1.307801731
CELLS 90 378
2 4 8
2 8 9
2 9 3
2 3 10
2 10 11
2 11 5
2 6 12
2 12 13
2 13 5
2 4 14
2 14 15
2 15 6
2 7 16
2 16 17
2 17 0
2 7 18
2 18 19
2 19 1
2 1 20
2 20 21
2 21 2
2 0 22
2 22 23
2 23 2
2 4 24
2 24 25
2 25 7
2 3 26
2 26 27
2 27 0
2 6 28
2 28 29
2 29 1
2 5 30
2 30 31
2 31 2
4 4 8 32 14
4 8 9 33 32
4 9 3 10 33
4 14 32 34 15
4 32 33 35 34
4 33 10 11 35
4 15 34 12 6
4 34 35 13 12
4 35 11 5 13
4 5 11 36 30
4 11 10 37 36
4 10 3 26 37
4 30 36 38 31
4 36 37 39 38
4 37 26 27 39
4 31 38 23 2
4 38 39 22 23
4 39 27 0 22
4 4 14 40 24
4 14 15 41 40
4 15 6 28 41
4 24 40 42 25
4 40 41 43 42
4 41 28 29 43
4 25 42 18 7
4 42 43 19 18
4 43 29 1 19
4 0 17 44 22
4 17 16 45 44
4 16 7 18 45
4 22 44 46 23
4 44 45 47 46
4 45 18 19 47
4 23 46 21 2
4 46 47 20 21
4 47 19 1 20
4 3 9 48 26
4 9 8 49 48
4 8 4 24 49
4 26 48 50 27
4 48 49 51 50
4 49 24 25 51
4 27 50 17 0
4 50 51 16 17
4 51 25 7 16
4 6 12 52 28
4 12 13 53 52
4 13 5 30 53
4 28 52 54 29
4 52 53 55 54
4 53 30 31 55
4 29 54 20 1
4 54 55 21 20
4 55 31 2 21
CELL_TYPES 90
3
3
3
3
3
3
3
3
3
3
3
3
3
3
3
3
3
3
3
3
3
3
3
3
3
3
3
3
3
3
3
3
3
3
3
3
9
9
9
9
9
9
9
9
9
9
9
9
9
9
9
9
9
9
9
9
9
9
9
9
9
9
9
9
9
9
9
9
9
9
9
9
9
9
9
9
9
9
9
9
9
9
9
9
9
9
9
9
9
9
POINT_DATA 56
SCALARS GLOBAL_ID int 1
LOOKUP_TABLE default
0 
1 
2 
3 
4 
5 
6 
7 
8 
9 
10 
11 
12 
13 
14 
15 
16 
17 
18 
19 
20 
21 
22 
23 
24 
25 
26 
27 
28 
29 
30 
31 
32 
33 
34 
35 
36 
37 
38 
39 
40 
41 
42 
43 
44 
45 
46 
47 
48 
49 
50 
51 
52 
53 
54 
55 
SCALARS MeshTFIMapping int 1
LOOKUP_TABLE default
0 
0 
0 
0 
0 
0 
0 
0 
0 
0 
0 
0 
0 
0 
0 
0 
0 
0 
10 
11 
0 
0 
8 
9 
10 
11 
8 
9 
8 
9 
10 
11 
0 
0 
0 
0 
0 
0 
0 
0 
0 
0 
0 
0 
0 
0 
0 
0 
0 
0 
0 
0 
0 
0 
0 
0 
SCALARS Uvel double 1
LOOKUP_TABLE default
3.928483903 
6.035428414 
5.305874875 
-3.928483903 
-3.198930363 
-5.305874875 
-6.035428414 
3.198930363 
-4.322329573 
-4.605392977 
-5.748745576 
-6.865623102 
-4.912029204 
-4.6289658 
-5.362073776 
-7.252294902 
4.322329573 
4.605392977 
5.362073776 
7.252294902 
4.912029204 
4.6289658 
5.748745576 
6.865623102 
-0.7448943855 
0.7448943855 
-1.131566185 
1.131566185 
-2.635115511 
2.635115511 
-2.248443711 
2.248443711 
-6.094289037 
-6.28199169 
-6.520079641 
-6.332376989 
-7.04501366 
-2.189345117 
7.04501366 
2.189345117 
-1.676531932 
-7.557826845 
1.676531932 
7.557826845 
6.28199169 
6.094289037 
6.332376989 
6.520079641 
-1.664812299 
-1.477109646 
1.664812299 
1.477109646 
-1.90290025 
-1.715197598 
1.90290025 
1.715197598 
SCALARS Vvel double 1
LOOKUP_TABLE default
1.826801395 
-2.191578165 
1.826801395 
-1.826801395 
2.191578165 
-1.826801395 
2.191578165 
-2.191578165 
1.288798203 
-0.2703145039 
-2.883441823 
-2.883441823 
1.288798203 
-0.2703145039 
2.935246021 
2.935246021 
-1.288798203 
0.2703145039 
-2.935246021 
-2.935246021 
-1.288798203 
0.2703145039 
2.883441823 
2.883441823 
0.7864968 
-0.7864968 
-0.772615907 
0.772615907 
0.7864968 
-0.7864968 
-0.772615907 
0.772615907 
2.065877216 
-0.7586968653 
2.065877216 
-0.7586968653 
-1.822044317 
-1.822044317 
1.822044317 
1.822044317 
1.002529764 
1.002529764 
-1.002529764 
-1.002529764 
0.7586968653 
-2.065877216 
0.7586968653 
-2.065877216 
-0.2032922121 
0.5535501309 
0.2032922121 
-0.5535501309 
0.5535501309 
-0.2032922121 
-0.5535501309 
0.2032922121 
VECTORS Velo double
2.032069061 3.523646154 1.491577093 
-5.162400398 3.37298432 -1.789416078 
-4.49760865 3.006031558 1.491577093 
-3.523646154 2.032069061 -1.491577093 
-3.156693391 1.367277313 1.789416078 
3.006031558 4.49760865 -1.491577093 
3.37298432 5.162400398 1.789416078 
1.367277313 3.156693391 -1.789416078 
-3.225996574 2.88670053 1.266270076 
-3.292086839 3.220922369 -0.2655894201 
-3.422886739 5.034379626 -2.073928785 
-0.1580478866 7.150164864 -2.073928785 
3.303681137 3.642977181 1.266270076 
3.237590872 3.308755343 -0.2655894201 
-3.357573147 4.651568246 2.111189193 
-0.09273429433 7.532976244 2.111189193 
2.88670053 3.225996574 -1.266270076 
3.220922369 3.292086839 0.2655894201 
-0.5819595205 5.707162841 -2.111189193 
-3.846798373 6.477381648 -2.111189193 
-3.642977181 3.303681137 -1.266270076 
-3.308755343 3.237590872 0.2655894201 
-0.4471170609 6.071344017 2.073928785 
-3.711955913 6.113200472 2.073928785 
-0.8609355843 -0.3350044444 0.5656914387 
0.5780898653 0.720590151 -0.5656914387 
-1.231935888 -0.2256113166 -0.5557075425 
0.9540821172 0.811353075 0.5557075425 
2.403903268 1.209815377 0.5656914387 
-2.686748987 0.1542207818 -0.5656914387 
2.032902964 1.100422249 -0.5557075425 
-2.310756735 0.06345785778 0.5557075425 
-2.077312179 5.752658156 1.999976447 
-1.809522763 6.018736199 -0.7344946978 
1.187526674 6.431886334 1.999976447 
1.455316089 6.165808291 -0.7344946978 
3.776795984 6.186357882 -0.645640164 
-2.752881728 0.3433198292 -0.645640164 
-6.186357882 3.776795984 0.645640164 
0.3433198292 2.752881728 0.645640164 
-1.848384674 0.5225895221 0.3552457399 
4.681293037 6.007088189 0.3552457399 
0.5225895221 1.848384674 -0.3552457399 
-6.007088189 4.681293037 -0.3552457399 
1.442275414 6.117139829 0.7344946978 
1.077323956 6.020604192 -1.999976447 
-1.822563438 6.06740466 0.7344946978 
-2.187514896 6.163940297 -1.999976447 
-1.621268782 0.3816833138 -0.1968072609 
-1.462676317 0.2483310895 0.5358920733 
1.594901609 0.4800869441 0.1968072609 
1.390880393 0.5162771258 -0.5358920733 
1.802162535 0.6264798433 0.5358920733 
1.64357007 0.493127619 -0.1968072609 
-1.873958459 0.358533807 -0.5358920733 
-1.669937243 0.3947239887 0.1968072609 
CELL_DATA 90
SCALARS GLOBAL_ID int 1
LOOKUP_TABLE default
0 
1 
2 
3 
4 
5 
6 
7 
8 
9 
10 
11 
12 
13 
14 
15 
16 
17 
18 
19 
20 
21 
22 
23 
24 
25 
26 
27 
28 
29 
30 
31 
32 
33 
34 
35 
0 
1 
2 
3 
4 
5 
6 
7 
8 
9 
10 
11 
12 
13 
14 
15 
16 
17 
18 
19 
20 
21 
22 
23 
24 
25 
26 
27 
28 
29 
30 
31 
32 
33 
34 
35 
36 
37 
38 
39 
40 
41 
42 
43 
44 
45 
46 
47 
48 
49 
50 
51 
52 
53 
