# vtk DataFile Version 3.0
MOAB 4.6.0pre
ASCII
DATASET UNSTRUCTURED_GRID
POINTS 47 double
1.5 -2.5 3.5
1.5 -1.5 3.5
1.5 -2 3.5
0.5 -1.5 3.5
1 -1.5 3.5
0.5 -2.5 3.5
0.5 -2 3.5
1 -2.5 3.5
1 -2 3.5
1.5 -1.5 2.5
1.5 -2.5 2.5
1.5 -2 2.5
0.5 -2.5 2.5
1 -2.5 2.5
0.5 -1.5 2.5
0.5 -2 2.5
1 -1.5 2.5
1 -2 2.5
0.5 -2.5 3
1.5 -2.5 3
1 -2.5 3
0.5 -1.5 3
0.5 -2 3
1.5 -1.5 3
1 -1.5 3
1.5 -2 3
1 -2 3
4 -2.25 3.25
4 -1.25 3.25
4 -1.75 3.25
3 -1.25 3.25
3.5 -1.25 3.25
3 -2.25 3.25
3 -1.75 3.25
3.5 -2.25 3.25
4 -1.25 2.25
4 -2.25 2.25
4 -1.75 2.25
3 -2.25 2.25
3.5 -2.25 2.25
3 -1.25 2.25
3 -1.75 2.25
3.5 -1.25 2.25
3 -2.25 2.75
4 -2.25 2.75
3 -1.25 2.75
4 -1.25 2.75
CELLS 68 330
2 10 13
2 13 12
2 11 17
2 17 15
2 0 19
2 19 10
2 10 11
2 11 9
2 23 1
2 9 23
2 2 0
2 1 2
3 27 44 29
3 44 36 37
3 37 35 46
3 46 28 29
3 44 37 29
3 37 46 29
3 34 31 33
3 33 32 34
3 31 34 29
3 30 33 31
3 29 34 27
3 29 28 31
3 43 38 39
3 43 34 32
3 43 39 34
3 44 27 34
3 44 39 36
3 39 44 34
4 0 19 25 2
4 19 10 11 25
4 2 25 23 1
4 25 11 9 23
4 6 5 7 8
4 3 6 8 4
4 8 7 0 2
4 4 8 2 1
4 42 34 41 39
4 34 33 31 42
4 43 41 39 38
4 33 41 34 43
4 43 33 32 34
4 31 42 29 34
4 43 39 41 34
4 34 44 37 29
4 29 34 42 37
4 40 45 41 42
4 46 31 42 29
4 42 33 31 45
4 33 41 42 34
4 45 30 33 31
4 44 29 34 27
4 44 36 39 37
4 39 44 37 34
4 37 34 42 39
4 45 41 42 33
4 46 37 42 35
4 46 42 37 29
4 46 29 28 31
8 5 18 22 6 7 20 26 8
8 18 12 15 22 20 13 17 26
8 6 22 21 3 8 26 24 4
8 22 15 14 21 26 17 16 24
8 7 20 26 8 0 19 25 2
8 20 13 17 26 19 10 11 25
8 8 26 24 4 2 25 23 1
8 26 17 16 24 25 11 9 23
CELL_TYPES 68
3
3
3
3
3
3
3
3
3
3
3
3
5
5
5
5
5
5
5
5
5
5
5
5
5
5
5
5
5
5
9
9
9
9
9
9
9
9
10
10
10
10
10
10
10
10
10
10
10
10
10
10
10
10
10
10
10
10
10
10
12
12
12
12
12
12
12
12
POINT_DATA 47
SCALARS GLOBAL_ID int 1
LOOKUP_TABLE default
1 
2 
3 
4 
5 
6 
7 
8 
9 
10 
11 
12 
13 
14 
15 
16 
17 
18 
19 
20 
21 
22 
23 
24 
25 
26 
27 
28 
29 
30 
31 
32 
33 
34 
35 
36 
37 
38 
39 
40 
41 
42 
43 
44 
45 
46 
47 
CELL_DATA 68
SCALARS GLOBAL_ID int 1
LOOKUP_TABLE default
35 
36 
37 
38 
0 
0 
0 
0 
0 
0 
0 
0 
39 
40 
41 
42 
43 
44 
0 
0 
0 
0 
0 
0 
0 
0 
0 
0 
0 
0 
9 
10 
11 
12 
0 
0 
0 
0 
13 
14 
15 
16 
17 
18 
19 
20 
21 
22 
23 
24 
25 
26 
27 
28 
29 
30 
31 
32 
33 
34 
1 
2 
3 
4 
5 
6 
7 
8 
